/home/erba/Mitoli/TESIMAG/bin/Linux-ifort_openmpi-2.1.0-icc_i64_clut/std/Pcrystal
/scratch/alessandro/tmp_p20879
script started on node80
Coesite opt
CRYSTAL
0 0 0
15
7.17765587	12.50735576	7.15888478	119.184112
7
14    -3.176363151861E-01 -1.405083529463E-01  7.150287745962E-02
14     2.152841661025E-01  9.157812918758E-02  4.561022895178E-01
 8    -4.243394263657E-01 -1.210779937985E-01 -4.306882729334E-01
 8     1.987485120223E-01  3.879957356528E-02 -2.741334586373E-02
 8     2.420824532677E-01  1.475761904558E-01 -3.265840780400E-01
 8    -2.775557561563E-17  1.378968272244E-01  2.500000000000E-01
 8     2.500000000000E-01  2.500000000000E-01  4.336808689942E-19
ELASTCON
END
END
14 8
0 0 5 2 1
  6903.7118686      0.0013373962995
  1038.4346419      0.0099966546241
  235.87581480      0.0449101651010
  66.069385169      0.1146363854000
  20.247945761      0.1028006385800
0 0 3 2 1
  34.353481730      0.0708372850100
  3.6370788192     -0.4302883625200
  1.4002048599     -0.4138277496900
0 0 1 2 1
  0.6071355100      1.0000000000000 
0 0 1 0 1
  0.1560972800      1.0000000000000 
0 2 5 6 1
  179.83907373      0.0061916656462
  41.907258846      0.0433994319820
  12.955294367      0.1563201935100
  4.4383267393      0.2941999698200
  1.5462247904      0.2353682381400
0 2 1 2 1
  0.3738706200      1.0000000000000
0 2 1 0 1
  0.1400744900      1.0000000000000
0 3 1 0 1
  0.3500000000      1.0000000000000
8 6
0 0 5 2 1
  2266.1767785      -0.005343180993
  340.87010191      -0.039890039230
  77.363135167      -0.178539119850
  21.479644940      -0.464276849590
  6.6589433124      -0.443097451720
0 0 1 2 1
  0.8478937000       1.000000000000
0 0 1 0 1
  0.2790534900       1.000000000000
0 2 3 4 1
  17.721504317       0.043394573193
  3.8635505440       0.230941207650
  1.0480920883       0.513753110640
0 2 1 0 1
  0.2623818000       1.000000000000
0 3 1 0 1
  0.4790426200       1.000000000000
99 0
END
DFT
PBE0
END
SHRINK
6 6
END
************************************************
ANOTHER DROLLERY FILLED RUN OF THE CRYSTAL CODE!
************************************************
Fri 02 Dec 2022 08:12:44 PM CET
         100 PROCESSORS WORKING

         
 *******************************************************************************
 *                                                                             *
 *                               CRYSTAL17                                     *
 *                      public : 1.0.1 - Feb 1st, 2017                         *
 *                       HTTP://WWW.CRYSTAL.UNITO.IT                           *
 *                                                                             *
 *                              MAIN AUTHORS                                   *
 *                                                                             *
 *  R. DOVESI(1,11), V.R. SAUNDERS(2), C. ROETTI(1,11), R. ORLANDO(1,11),      *
 *  C.M. ZICOVICH-WILSON(1,3), F. PASCALE(4), B. CIVALLERI(1,11),              *
 *  K. DOLL(5), N.M. HARRISON(2,6), I.J. BUSH(7), Ph. D'ARCO(8),               *
 *  M. LLUNELL(9), M. CAUSA'(10), Y. NOEL(8), L. MASCHIO(1,11), A. ERBA(1,11)  *
 *  M. RE'RAT(14), S. CASASSA(1,11)                                            *
 *                                                                             *
 *        CONTRIBUTIONS TO THE CODE HAVE ALSO BEEN GIVEN BY                    *
 *                                                                             *
 *  M. FERRABONE(1,11), M. DE LA PIERRE(1,11), M. FERRERO(1,11),               *
 *  J. BAIMA(1,11), E. ALBANESE(1,11), M.F. PEINTINGER(12), R. BAST(13),       *
 *  B. KIRTMAN(15), V. LACIVITA(1,11), R. DEMICHELIS(1,16)                     *
 *  G. BRANDEBURG(17), S. SALUSTRO(1,11), G. SANSONE(1,11)                     *
 *  M.T. RUGGIERO(18)                                                          *
 *                                                                             *
 * (1) THEORETICAL CHEMISTRY GROUP - UNIVERSITA' DI TORINO - TORINO (ITALY)    *

 * (2) COMPUTATIONAL SCIENCE & ENGINEERING DEPARTMENT - STFC DARESBURY (UK)    *
 * (3) UNIVERSIDAD AUTONOMA DEL ESTADO DE MORELOS - CUERNAVACA (MEXICO)        *
 * (4) UNIVERSITE' DE LORRAINE - NANCY (FRANCE)                                *
 * (5) UNIVERSITAET STUTTGART- STUTTGART (GERMANY)                             *
 * (6) IMPERIAL COLLEGE - LONDON (UK)                                          *
 * (7) OXFORD E-RESEARCH CENTRE - OXFORD (UK)                                  *
 * (8) UPMC - SORBONNE UNIVERSITES - PARIS (FRANCE)                            *
 * (9) UNIVERSIDAD DE BARCELONA - BARCELONA (SPAIN)                            *
 *(10) UNIVERSITA' DI NAPOLI "FEDERICO II" - NAPOLI (ITALY)                    *
 *(11) NIS - NANOSTRUCTURED INTERFACES AND SURFACES - TORINO (ITALY)           *
 *(12) MPI FUER CHEMISCHE ENERGIEKONVERSION - MUELHEIM AN DER RUHR (GERMANY)   *
 *(13) UNIVERSITY OF TROMSO - TROMSO (NORWAY)                                  *
 *(14) UNIVERSITE' DE PAU ET DES PAYS DE L'ADOUR - PAU (FRANCE)                *
 *(15) UNIVERSITY OF CALIFORNIA SANTA BARBARA - SANTA BARBARA (USA)            *
 *(16) CURTIN UNIVERSITY - PERTH (AUSTRALIA)                                   *
 *(17) UNIVERSITY COLLEGE LONDON - LONDON (UK)                                 *
 *(18) CAMBRIDGE UNIVERSITY - CAMBRIDGE (UK)                                   *
 *                                                                             *
 *******************************************************************************
 EEEEEEEEEE STARTING  DATE 02 12 2022 TIME 20:12:45.6
 Coesite opt                                                                     

 CRYSTAL CALCULATION
 (INPUT ACCORDING TO THE INTERNATIONAL TABLES FOR X-RAY CRYSTALLOGRAPHY)
 CRYSTAL FAMILY                       :  MONOCLINIC  
 CRYSTAL CLASS  (GROTH - 1921)        :  MONOCLINIC PRISMATIC                 

 SPACE GROUP (CENTROSYMMETRIC)        :  C 2/C           

 LATTICE PARAMETERS  (ANGSTROMS AND DEGREES) - CONVENTIONAL CELL
        A           B           C        ALPHA        BETA       GAMMA
     7.17766    12.50736     7.15888    90.00000   119.18411    90.00000


 NUMBER OF IRREDUCIBLE ATOMS IN THE CONVENTIONAL CELL:    7

 INPUT COORDINATES

 ATOM AT. N.              COORDINATES
   1  14    -3.176363151861E-01 -1.405083529463E-01  7.150287745962E-02
   2  14     2.152841661025E-01  9.157812918758E-02  4.561022895178E-01
   3   8    -4.243394263657E-01 -1.210779937985E-01 -4.306882729334E-01
   4   8     1.987485120223E-01  3.879957356528E-02 -2.741334586373E-02
   5   8     2.420824532677E-01  1.475761904558E-01 -3.265840780400E-01
   6   8    -2.775557561563E-17  1.378968272244E-01  2.500000000000E-01
   7   8     2.500000000000E-01  2.500000000000E-01  4.336808689942E-19

 *******************************************************************************

 << INFORMATION >>: FROM NOW ON, ALL COORDINATES REFER TO THE PRIMITIVE CELL

 *******************************************************************************

 LATTICE PARAMETERS  (ANGSTROMS AND DEGREES) - PRIMITIVE CELL
       A          B          C        ALPHA      BETA     GAMMA        VOLUME
    7.21028    7.21028    7.15888    75.95372 104.04628  59.70085    280.547416

 COORDINATES OF THE EQUIVALENT ATOMS (FRACTIONAL UNITS)

 N. ATOM EQUIV AT. N.          X                  Y                  Z

   1   1   1   14 SI   -4.58144668132E-01  1.77127962240E-01  7.15028774596E-02
   2   1   2   14 SI    1.77127962240E-01 -4.58144668132E-01  4.28497122540E-01
   3   1   3   14 SI    4.58144668132E-01 -1.77127962240E-01 -7.15028774596E-02
   4   1   4   14 SI   -1.77127962240E-01  4.58144668132E-01 -4.28497122540E-01

   5   2   1   14 SI    3.06862295290E-01 -1.23706036915E-01  4.56102289518E-01
   6   2   2   14 SI   -1.23706036915E-01  3.06862295290E-01  4.38977104822E-02
   7   2   3   14 SI   -3.06862295290E-01  1.23706036915E-01 -4.56102289518E-01
   8   2   4   14 SI    1.23706036915E-01 -3.06862295290E-01 -4.38977104822E-02

   9   3   1    8 O     4.54582579836E-01  3.03261432567E-01 -4.30688272933E-01
  10   3   2    8 O     3.03261432567E-01  4.54582579836E-01 -6.93117270666E-02
  11   3   3    8 O    -4.54582579836E-01 -3.03261432567E-01  4.30688272933E-01
  12   3   4    8 O    -3.03261432567E-01 -4.54582579836E-01  6.93117270666E-02

  13   4   1    8 O     2.37548085588E-01 -1.59948938457E-01 -2.74133458637E-02
  14   4   2    8 O    -1.59948938457E-01  2.37548085588E-01 -4.72586654136E-01
  15   4   3    8 O    -2.37548085588E-01  1.59948938457E-01  2.74133458637E-02
  16   4   4    8 O     1.59948938457E-01 -2.37548085588E-01  4.72586654136E-01

  17   5   1    8 O     3.89658643724E-01 -9.45062628119E-02 -3.26584078040E-01
  18   5   2    8 O    -9.45062628119E-02  3.89658643724E-01 -1.73415921960E-01
  19   5   3    8 O    -3.89658643724E-01  9.45062628119E-02  3.26584078040E-01
  20   5   4    8 O     9.45062628119E-02 -3.89658643724E-01  1.73415921960E-01

  21   6   1    8 O     1.37896827224E-01  1.37896827224E-01  2.50000000000E-01
  22   6   2    8 O    -1.37896827224E-01 -1.37896827224E-01 -2.50000000000E-01

  23   7   1    8 O    -5.00000000000E-01  0.00000000000E+00  4.33680868994E-19
  24   7   2    8 O     0.00000000000E+00 -5.00000000000E-01 -5.00000000000E-01

 NUMBER OF SYMMETRY OPERATORS         :    4
 *******************************************************************************
 * GEOMETRY EDITING - INPUT COORDINATES ARE GIVEN IN ANGSTROM         
 *******************************************************************************

 GEOMETRY NOW FULLY CONSISTENT WITH THE GROUP
 INFORMATION **** NEW DEFAULT **** FINALRUN 4 FOR GEOMETRY OPTIMIZATIONS
 INFORMATION **** NEW DEFAULT **** OPTGEOM OPTIMIZES BOTH ATOMIC COORDINATES AND CELL PARAMETERS
 INFORMATION **** NEW DEFAULT **** TOL. ON ATOMIC DISP TO REDEFINE REF. GEOMETRY: 0.8 Angs
 INFORMATION **** NEW DEFAULT **** N POINTS TO REDEFINE REF. GEOMETRY: N OF OPT DEGS OF FREEDOM
 INFORMATION **** NEW DEFAULT **** TOL. ON ENERGY TO REDEFINE REF. GEOMETRY: 10**-3*(5*N. ATOMS)

 IMPORTANT INFORMATION:
 THE COORDINATE SYSTEM ADOPTED IN THE OPTIMIZATION IS NOT IN
 GENERAL HOMOGENEOUS UNITS. FOR THIS REASON THE GRADIENT AND 
 HESSIAN MATRIX IN TERMS OF THIS SYSTEM ARE GIVEN WITHOUT
 UNITS. FOR MORE DETAILS SEE THE MANUAL.

 INITIAL TRUST RADIUS         0.50000 MAXIMUM TRUST RADIUS               4.00000
 MAXIMUM GRADIENT COMPONENT   0.00045 MAXIMUM DISPLACEMENT COMPONENT     0.00180
 R.M.S. OF GRADIENT COMPONENT 0.00030 R.M.S. OF DISPLACEMENT COMPONENTS  0.00120
 THRESHOLD ON ENERGY CHANGE 0.100E-06 EXTRAPOLATING POLYNOMIAL ORDER           2
 MAXIMUM ALLOWED NUMBER OF STEPS   -1 SORTING OF ENERGY POINTS:               NO
 ANALYTICAL  GRADIENT                 HESSIAN UPDATING                      BFGS
 STEP SIZE NUMERICAL GRADIENT 0.00100
 INITIAL HESSIAN MATRIX: SCHLEGEL MODEL 2
 *******************************************************************************


 ELAELAELAELAELAELAELAELAELAELAELAELAELAELAELAELAELAELAELAELAELAELAELAELAELAELA

                       ELASTIC CALCULATION

 INFORMATION **** TOLDEX ****  CONVERGENCE CRITERION FOR RMS DISPLACEMENT MODIFIED  6.200000E-04
 INFORMATION **** TOLDEG **** MODIFY CONVERGENCE CRITERION FOR RMS GRADIENT  3.000000E-04
 INFORMATION **** TOLDEE **** CONVERGENCE CRITERION FOR ENERGY MODIFIED: 10**-           8

 GCALCO - MAX INDICES DIRECT LATTICE VECTOR    15    15    14
 NO.OF VECTORS CREATED 6999 STARS 1860 RMAX   146.74510 BOHR

 GEOMETRY FOR WAVE FUNCTION - DIMENSIONALITY OF THE SYSTEM    3
 (NON PERIODIC DIRECTION: LATTICE PARAMETER FORMALLY SET TO 500)
 *******************************************************************************
 LATTICE PARAMETERS (ANGSTROMS AND DEGREES) - BOHR = 0.5291772083 ANGSTROM
 PRIMITIVE CELL - CENTRING CODE 4/0 VOLUME=   280.547416 - DENSITY  2.840 g/cm^3
         A              B              C           ALPHA      BETA       GAMMA 
     7.21028245     7.21028245     7.15888478    75.953720 104.046280  59.700853
 *******************************************************************************
 ATOMS IN THE ASYMMETRIC UNIT    7 - ATOMS IN THE UNIT CELL:   24
     ATOM                 X/A                 Y/B                 Z/C    
 *******************************************************************************
      1 T  14 SI   -4.581446681324E-01  1.771279622398E-01  7.150287745962E-02
      2 F  14 SI    1.771279622398E-01 -4.581446681324E-01  4.284971225404E-01
      3 F  14 SI    4.581446681324E-01 -1.771279622398E-01 -7.150287745962E-02
      4 F  14 SI   -1.771279622398E-01  4.581446681324E-01 -4.284971225404E-01
      5 T  14 SI    3.068622952901E-01 -1.237060369149E-01  4.561022895178E-01
      6 F  14 SI   -1.237060369149E-01  3.068622952901E-01  4.389771048220E-02
      7 F  14 SI   -3.068622952901E-01  1.237060369149E-01 -4.561022895178E-01
      8 F  14 SI    1.237060369149E-01 -3.068622952901E-01 -4.389771048220E-02
      9 T   8 O     4.545825798358E-01  3.032614325672E-01 -4.306882729334E-01
     10 F   8 O     3.032614325672E-01  4.545825798358E-01 -6.931172706660E-02
     11 F   8 O    -4.545825798358E-01 -3.032614325672E-01  4.306882729334E-01
     12 F   8 O    -3.032614325672E-01 -4.545825798358E-01  6.931172706660E-02
     13 T   8 O     2.375480855876E-01 -1.599489384570E-01 -2.741334586373E-02
     14 F   8 O    -1.599489384570E-01  2.375480855876E-01 -4.725866541363E-01
     15 F   8 O    -2.375480855876E-01  1.599489384570E-01  2.741334586373E-02
     16 F   8 O     1.599489384570E-01 -2.375480855876E-01  4.725866541363E-01
     17 T   8 O     3.896586437235E-01 -9.450626281190E-02 -3.265840780400E-01
     18 F   8 O    -9.450626281190E-02  3.896586437235E-01 -1.734159219600E-01
     19 F   8 O    -3.896586437235E-01  9.450626281190E-02  3.265840780400E-01
     20 F   8 O     9.450626281190E-02 -3.896586437235E-01  1.734159219600E-01
     21 T   8 O     1.378968272244E-01  1.378968272244E-01  2.500000000000E-01
     22 F   8 O    -1.378968272244E-01 -1.378968272244E-01 -2.500000000000E-01
     23 T   8 O    -5.000000000000E-01 -5.551115123126E-17  1.232572129233E-34
     24 F   8 O     8.326672684689E-17 -5.000000000000E-01 -5.000000000000E-01

 TRANSFORMATION MATRIX PRIMITIVE-CRYSTALLOGRAPHIC CELL
  1.0000  1.0000  0.0000 -1.0000  1.0000  0.0000  0.0000  0.0000  1.0000

 *******************************************************************************
 CRYSTALLOGRAPHIC CELL (VOLUME=        561.09483274)
         A              B              C           ALPHA      BETA       GAMMA 
     7.17765587    12.50735576     7.15888478    90.000000 119.184112  90.000000

 COORDINATES IN THE CRYSTALLOGRAPHIC CELL
     ATOM                 X/A                 Y/B                 Z/C    
 *******************************************************************************
      1 T  14 SI   -3.176363151861E-01 -1.405083529463E-01  7.150287745962E-02
      2 F  14 SI    3.176363151861E-01 -1.405083529463E-01  4.284971225404E-01
      3 F  14 SI    3.176363151861E-01  1.405083529463E-01 -7.150287745962E-02
      4 F  14 SI   -3.176363151861E-01  1.405083529463E-01 -4.284971225404E-01
      5 T  14 SI    2.152841661025E-01  9.157812918758E-02  4.561022895178E-01
      6 F  14 SI   -2.152841661025E-01  9.157812918758E-02  4.389771048220E-02
      7 F  14 SI   -2.152841661025E-01 -9.157812918758E-02 -4.561022895178E-01
      8 F  14 SI    2.152841661025E-01 -9.157812918758E-02 -4.389771048220E-02
      9 T   8 O    -4.243394263657E-01 -1.210779937985E-01 -4.306882729334E-01
     10 F   8 O     4.243394263657E-01 -1.210779937985E-01 -6.931172706660E-02
     11 F   8 O     4.243394263657E-01  1.210779937985E-01  4.306882729334E-01
     12 F   8 O    -4.243394263657E-01  1.210779937985E-01  6.931172706660E-02
     13 T   8 O     1.987485120223E-01  3.879957356528E-02 -2.741334586373E-02
     14 F   8 O    -1.987485120223E-01  3.879957356528E-02 -4.725866541363E-01
     15 F   8 O    -1.987485120223E-01 -3.879957356528E-02  2.741334586373E-02
     16 F   8 O     1.987485120223E-01 -3.879957356528E-02  4.725866541363E-01
     17 T   8 O     2.420824532677E-01  1.475761904558E-01 -3.265840780400E-01
     18 F   8 O    -2.420824532677E-01  1.475761904558E-01 -1.734159219600E-01
     19 F   8 O    -2.420824532677E-01 -1.475761904558E-01  3.265840780400E-01
     20 F   8 O     2.420824532677E-01 -1.475761904558E-01  1.734159219600E-01
     21 T   8 O     1.387778780781E-17  1.378968272244E-01  2.500000000000E-01
     22 F   8 O    -1.387778780781E-17 -1.378968272244E-01 -2.500000000000E-01
     23 T   8 O     2.500000000000E-01  2.500000000000E-01  1.232572129233E-34
     24 F   8 O    -2.500000000000E-01  2.500000000000E-01 -5.000000000000E-01

 T = ATOM BELONGING TO THE ASYMMETRIC UNIT

 ****    4 SYMMOPS - TRANSLATORS IN FRACTIONAL UNITS
 **** MATRICES AND TRANSLATORS IN THE CRYSTALLOGRAPHIC REFERENCE FRAME
   V INV                    ROTATION MATRICES                   TRANSLATORS
   1   1  1.00  0.00  0.00  0.00  1.00  0.00  0.00  0.00  1.00  0.00  0.00  0.00
   2   2  0.00  1.00 -0.00  1.00  0.00 -0.00  0.00  0.00 -1.00  0.00  0.00  0.50
   3   3 -1.00 -0.00 -0.00 -0.00 -1.00 -0.00  0.00  0.00 -1.00  0.00  0.00  0.00
   4   4 -0.00 -1.00  0.00 -1.00 -0.00  0.00  0.00  0.00  1.00  0.00  0.00  0.50

 DIRECT LATTICE VECTORS CARTESIAN COMPONENTS (ANGSTROM)
          X                    Y                    Z
   0.358882793500E+01   0.625367788000E+01   0.000000000000E+00
  -0.358882793500E+01   0.625367788000E+01   0.000000000000E+00
  -0.349079807848E+01   0.438355266565E-15   0.625011680440E+01


 CARTESIAN COORDINATES - PRIMITIVE CELL
 *******************************************************************************
 *      ATOM          X(ANGSTROM)         Y(ANGSTROM)         Z(ANGSTROM)
 *******************************************************************************
    1    14 SI   -2.529486269463E+00 -1.757387957551E+00  4.469013359730E-01
    2    14 SI    7.840872302223E-01 -1.757387957551E+00  2.678157066225E+00
    3    14 SI    2.529486269463E+00  1.757387957551E+00 -4.469013359730E-01
    4    14 SI   -7.840872302223E-01  1.757387957551E+00 -2.678157066225E+00
    5    14 SI   -4.692533729566E-02  1.145400241584E+00  2.850692584239E+00
    6    14 SI   -1.698473701945E+00  1.145400241584E+00  2.743658179593E-01
    7    14 SI    4.692533729566E-02 -1.145400241584E+00 -2.850692584239E+00
    8    14 SI    1.698473701945E+00 -1.145400241584E+00 -2.743658179593E-01
    9     8 O    -1.542316578946E+00 -1.514365543145E+00 -2.691852012117E+00
   10     8 O     3.287715618186E+00 -1.514365543145E+00 -4.332063900807E-01
   11     8 O     1.542316578946E+00  1.514365543145E+00  2.691852012117E+00
   12     8 O    -3.287715618186E+00  1.514365543145E+00  4.332063900807E-01
   13     8 O     1.522242879036E+00  4.852800699172E-01 -1.713366136476E-01
   14     8 O     2.231561602038E-01  4.852800699172E-01 -2.953721788550E+00
   15     8 O    -1.522242879036E+00 -4.852800699172E-01  1.713366136476E-01
   16     8 O    -2.231561602038E-01 -4.852800699172E-01  2.953721788550E+00
   17     8 O     2.877623613805E+00  1.845787915736E+00 -2.041188634206E+00
   18     8 O    -1.132224574565E+00  1.845787915736E+00 -1.083869767992E+00
   19     8 O    -2.877623613805E+00 -1.845787915736E+00  2.041188634206E+00
   20     8 O     1.132224574565E+00 -1.845787915736E+00  1.083869767992E+00
   21     8 O    -8.726995196201E-01  1.724724676271E+00  1.562529201099E+00
   22     8 O     8.726995196201E-01 -1.724724676271E+00 -1.562529201099E+00
   23     8 O     1.794413967500E+00  3.126838940000E+00  7.703719777549E-34
   24     8 O    -3.539813006740E+00  3.126838940000E+00  3.125058402198E+00

 *******************************************************************************
 LOCAL ATOMIC FUNCTIONS BASIS SET
 *******************************************************************************
   ATOM   X(AU)   Y(AU)   Z(AU)  N. TYPE  EXPONENT  S COEF   P COEF   D/F/G COEF
 *******************************************************************************
   1 SI  -4.780  -3.321   0.845
                                  1 S  
                                         6.904E+03 1.337E-03 0.000E+00 0.000E+00
                                         1.038E+03 9.997E-03 0.000E+00 0.000E+00
                                         2.359E+02 4.491E-02 0.000E+00 0.000E+00
                                         6.607E+01 1.146E-01 0.000E+00 0.000E+00
                                         2.025E+01 1.028E-01 0.000E+00 0.000E+00
                                  2 S  
                                         3.435E+01 7.084E-02 0.000E+00 0.000E+00
                                         3.637E+00-4.303E-01 0.000E+00 0.000E+00
                                         1.400E+00-4.138E-01 0.000E+00 0.000E+00
                                  3 S  
                                         6.071E-01 1.000E+00 0.000E+00 0.000E+00
                                  4 S  
                                         1.561E-01 1.000E+00 0.000E+00 0.000E+00
                           5-     7 P  
                                         1.798E+02 0.000E+00 6.192E-03 0.000E+00
                                         4.191E+01 0.000E+00 4.340E-02 0.000E+00
                                         1.296E+01 0.000E+00 1.563E-01 0.000E+00
                                         4.438E+00 0.000E+00 2.942E-01 0.000E+00
                                         1.546E+00 0.000E+00 2.354E-01 0.000E+00
                           8-    10 P  
                                         3.739E-01 0.000E+00 1.000E+00 0.000E+00
                          11-    13 P  
                                         1.401E-01 0.000E+00 1.000E+00 0.000E+00
                          14-    18 D  
                                         3.500E-01 0.000E+00 0.000E+00 1.000E+00
   2 SI   1.482  -3.321   5.061
   3 SI   4.780   3.321  -0.845
   4 SI  -1.482   3.321  -5.061
   5 SI  -0.089   2.164   5.387
   6 SI  -3.210   2.164   0.518
   7 SI   0.089  -2.164  -5.387
   8 SI   3.210  -2.164  -0.518
   9 O   -2.915  -2.862  -5.087
                                145 S  
                                         2.266E+03-5.343E-03 0.000E+00 0.000E+00
                                         3.409E+02-3.989E-02 0.000E+00 0.000E+00
                                         7.736E+01-1.785E-01 0.000E+00 0.000E+00
                                         2.148E+01-4.643E-01 0.000E+00 0.000E+00
                                         6.659E+00-4.431E-01 0.000E+00 0.000E+00
                                146 S  
                                         8.479E-01 1.000E+00 0.000E+00 0.000E+00
                                147 S  
                                         2.791E-01 1.000E+00 0.000E+00 0.000E+00
                         148-   150 P  
                                         1.772E+01 0.000E+00 4.339E-02 0.000E+00
                                         3.864E+00 0.000E+00 2.309E-01 0.000E+00
                                         1.048E+00 0.000E+00 5.138E-01 0.000E+00
                         151-   153 P  
                                         2.624E-01 0.000E+00 1.000E+00 0.000E+00
                         154-   158 D  
                                         4.790E-01 0.000E+00 0.000E+00 1.000E+00
  10 O    6.213  -2.862  -0.819
  11 O    2.915   2.862   5.087
  12 O   -6.213   2.862   0.819
  13 O    2.877   0.917  -0.324
  14 O    0.422   0.917  -5.582
  15 O   -2.877  -0.917   0.324
  16 O   -0.422  -0.917   5.582
  17 O    5.438   3.488  -3.857
  18 O   -2.140   3.488  -2.048
  19 O   -5.438  -3.488   3.857
  20 O    2.140  -3.488   2.048
  21 O   -1.649   3.259   2.953
  22 O    1.649  -3.259  -2.953
  23 O    3.391   5.909   0.000
  24 O   -6.689   5.909   5.906
 INFORMATION **** SET_MPP **** PCRYSTAL CALCULATION
 INFORMATION **** READM2 **** NEW DEFAULT: FOCK/KS MATRIX MIXING SET TO 30 %
 INFORMATION **** READM2 **** NEW DEFAULT: FULL DIRECT SCF MODE
 INFORMATION **** READM2 **** NEW DEFAULT: COULOMB BIPOLAR BUFFER SET TO 32 Mb
 INFORMATION **** READM2 **** NEW DEFAULT: EXCHANGE BIPOLAR BUFFER SET TO 32 Mb

 *******************************************************************************
 NEW DEFAULT: DFT INTEGRATION GRID INCREASED TO XLGRID
 NEW DEFAULT: DIIS ACCELERATOR ACTIVE
 USE KEYWORD NODIIS TO TURN IT OFF
 *******************************************************************************

 *******************************************************************************
 N. OF ATOMS PER CELL        24  COULOMB OVERLAP TOL         (T1) 10**   -6
 NUMBER OF SHELLS           160  COULOMB PENETRATION TOL     (T2) 10**   -6
 NUMBER OF AO               368  EXCHANGE OVERLAP TOL        (T3) 10**   -6
 N. OF ELECTRONS PER CELL   240  EXCHANGE PSEUDO OVP (F(G))  (T4) 10**   -6
 CORE ELECTRONS PER CELL    112  EXCHANGE PSEUDO OVP (P(G))  (T5) 10**  -12
 N. OF SYMMETRY OPERATORS     4  POLE ORDER IN MONO ZONE                  4
 *******************************************************************************
 TYPE OF CALCULATION :  RESTRICTED CLOSED SHELL
 KOHN-SHAM HAMILTONIAN

 (EXCHANGE)[CORRELATION] FUNCTIONAL:(PERDEW-BURKE-ERNZERHOF)[PERDEW-BURKE-ERNZERHOF]


 HYBRID EXCHANGE - PERCENTAGE OF FOCK EXCHANGE    25.0000

 CAPPA:IS1  6;IS2  6;IS3  6; K PTS MONK NET  68; SYMMOPS:K SPACE   4;G SPACE   4

 *******************************************************************************
 MAX NUMBER OF SCF CYCLES      50  CONVERGENCE ON DELTAP        10**-16
 WEIGHT OF F(I) IN F(I+1)      30% CONVERGENCE ON ENERGY        10**-10
 SHRINK. FACT.(MONKH.)    6  6  6  NUMBER OF K POINTS IN THE IBZ     68
 SHRINKING FACTOR(GILAT NET)    6  NUMBER OF K POINTS(GILAT NET)     68
 *******************************************************************************
 *** K POINTS COORDINATES (OBLIQUE COORDINATES IN UNITS OF IS =  6)
   1-R(  0  0  0)   2-C(  1  0  0)   3-C(  2  0  0)   4-R(  3  0  0)
   5-C(  1  1  0)   6-C(  2  1  0)   7-C(  3  1  0)   8-C(  4  1  0)
   9-C(  5  1  0)  10-C(  2  2  0)  11-C(  3  2  0)  12-C(  4  2  0)
  13-R(  3  3  0)  14-C(  0  0  1)  15-C(  1  0  1)  16-C(  2  0  1)
  17-C(  3  0  1)  18-C(  4  0  1)  19-C(  5  0  1)  20-C(  1  1  1)
  21-C(  2  1  1)  22-C(  3  1  1)  23-C(  4  1  1)  24-C(  5  1  1)
  25-C(  1  2  1)  26-C(  2  2  1)  27-C(  3  2  1)  28-C(  4  2  1)
  29-C(  1  3  1)  30-C(  2  3  1)  31-C(  3  3  1)  32-C(  1  4  1)
  33-C(  2  4  1)  34-C(  1  5  1)  35-C(  0  0  2)  36-C(  1  0  2)
  37-C(  2  0  2)  38-C(  3  0  2)  39-C(  4  0  2)  40-C(  5  0  2)
  41-C(  1  1  2)  42-C(  2  1  2)  43-C(  3  1  2)  44-C(  4  1  2)
  45-C(  5  1  2)  46-C(  1  2  2)  47-C(  2  2  2)  48-C(  3  2  2)
  49-C(  4  2  2)  50-C(  1  3  2)  51-C(  2  3  2)  52-C(  3  3  2)
  53-C(  1  4  2)  54-C(  2  4  2)  55-C(  1  5  2)  56-R(  0  0  3)
  57-C(  1  0  3)  58-C(  2  0  3)  59-R(  3  0  3)  60-C(  1  1  3)
  61-C(  2  1  3)  62-C(  3  1  3)  63-C(  4  1  3)  64-C(  5  1  3)
  65-C(  2  2  3)  66-C(  3  2  3)  67-C(  4  2  3)  68-R(  3  3  3)

 DIRECT LATTICE VECTORS COMPON. (A.U.)     RECIP. LATTICE VECTORS COMPON. (A.U.) 
        X            Y            Z              X            Y            Z
    6.7819019   11.8177385    0.0000000      0.4632318    0.2658370    0.2587230
   -6.7819019   11.8177385    0.0000000     -0.4632318    0.2658370   -0.2587230
   -6.5966524    0.0000000   11.8110091      0.0000000    0.0000000    0.5319770

 DISK SPACE FOR EIGENVECTORS (FTN 10)    17605120 REALS

 SYMMETRY ADAPTION OF THE BLOCH FUNCTIONS ENABLED
 TTTTTTTTTTTTTTTTTTTTTTTTTTTTTT gordsh1     TELAPSE        0.34 TCPU        0.21

 MATRIX SIZE: P(G)  514660, F(G)   91818, P(G) IRR   66684, F(G) IRR   23933
 MAX G-VECTOR INDEX FOR 1- AND 2-ELECTRON INTEGRALS  61

 TTTTTTTTTTTTTTTTTTTTTTTTTTTTTT INPUT       TELAPSE        0.35 TCPU        0.22

 NEIGHBORS OF THE NON-EQUIVALENT ATOMS

 N = NUMBER OF NEIGHBORS AT DISTANCE R
    ATOM  N     R/ANG      R/AU   NEIGHBORS (ATOM LABELS AND CELL INDICES)
   1 SI   1     1.6172     3.0561   23 O   -1 0 0
   1 SI   1     1.6342     3.0883   19 O    0 0 0
   1 SI   1     1.6384     3.0962   10 O   -1 1 0
   1 SI   1     1.6458     3.1102   15 O    0 0 0
   1 SI   1     3.0243     5.7151    6 SI   0 0 0
   1 SI   1     3.0977     5.8537    8 SI  -1 1 0

   5 SI   1     1.6297     3.0797   17 O    0 0 1
   5 SI   1     1.6361     3.0918   21 O    0 0 0
   5 SI   1     1.6392     3.0977   11 O    0 0 0
   5 SI   1     1.6434     3.1056   16 O    0 0 0
   5 SI   1     3.0243     5.7151    2 SI   0 0 0
   5 SI   1     3.0602     5.7830    6 SI   0 0 0

   9 O    1     1.6384     3.0962    2 SI  -1 1-1
   9 O    1     1.6392     3.0977    7 SI   0 0 0
   9 O    1     2.6515     5.0106   16 O   -1 1-1
   9 O    1     2.6566     5.0202   19 O    0 0-1
   9 O    1     2.6743     5.0537   22 O    0 0 0
   9 O    1     2.6794     5.0633   24 O   -1 0-1

  13 O    1     1.6434     3.1056    8 SI   0 0 0
  13 O    1     1.6458     3.1102    3 SI   0 0 0
  13 O    1     2.6515     5.0106   12 O    1-1 0
  13 O    1     2.6611     5.0287   23 O    0 0 0
  13 O    1     2.6761     5.0571   20 O    0 0 0
  13 O    1     2.6803     5.0650   10 O    0 0 0

  17 O    1     1.6297     3.0797    5 SI   0 0-1
  17 O    1     1.6342     3.0883    3 SI   0 0 0
  17 O    1     2.6421     4.9929   23 O    0 0 0
  17 O    1     2.6566     5.0202   11 O    0 0-1
  17 O    1     2.6618     5.0302   21 O    0 0-1
  17 O    1     2.6761     5.0571   16 O    0 0-1

  21 O    2     1.6361     3.0918    5 SI   0 0 0    6 SI   0 0 0
  21 O    2     2.6618     5.0302   17 O    0 0 1   18 O    0 0 0
  21 O    2     2.6743     5.0537   11 O    0 0 0   12 O    0 0 0
  21 O    2     2.6910     5.0852   15 O    0 0 0   16 O    0 0 0
  21 O    2     3.1523     5.9571   19 O    1 0 0   20 O    0 1 0
  21 O    2     3.2060     6.0584   13 O    0 0 0   14 O    0 0 1

  23 O    2     1.6172     3.0561    1 SI   1 0 0    3 SI   0 0 0
  23 O    2     2.6421     4.9929   17 O    0 0 0   19 O    1 0 0
  23 O    2     2.6611     5.0287   13 O    0 0 0   15 O    1 0 0
  23 O    2     2.6794     5.0633   10 O    0 1 0   12 O    1-1 0
  23 O    2     3.1480     5.9488    9 O    1 0 0   11 O    0 0 0
  23 O    2     3.3736     6.3752   18 O    0 0 0   20 O    1 0 0


 SYMMETRY ALLOWED ELASTIC DISTORTION 1
  0.5773503  0.0000000  0.0000000
  0.0000000  0.5773503  0.0000000
  0.0000000  0.0000000  0.5773503

 SYMMETRY ALLOWED ELASTIC DISTORTION 2
  0.8164966  0.0000000  0.0000000
  0.0000000 -0.4082483  0.0000000
  0.0000000  0.0000000 -0.4082483

 SYMMETRY ALLOWED ELASTIC DISTORTION 3
  0.0000000  0.0000000  0.0000000
  0.0000000  0.7071068  0.0000000
  0.0000000  0.0000000 -0.7071068

 SYMMETRY ALLOWED ELASTIC DISTORTION 4
 -0.0000000  0.0000000  0.7071068
  0.0000000 -0.0000000  0.0000000
  0.7071068  0.0000000  0.0000000

 SYMMETRY ALLOWED INTERNAL DEGREE(S) OF FREEDOM:  16
 TTTTTTTTTTTTTTTTTTTTTTTTTTTTTT SYMM        TELAPSE        0.47 TCPU        0.33
 TTTTTTTTTTTTTTTTTTTTTTTTTTTTTT INT_SCREEN  TELAPSE        0.49 TCPU        0.35

 ************************************************************************
 ************************************************************************
 * ELASTCON OPTION, W.F. PERGER, B. CIVALLERI, R. DOVESI                *
 * REFERENCES TO BE QUOTED WHEN USING THIS MODULE:                      *
 *                                                                      *
 * W.F. Perger, C. Criswell, B. Civalleri, R. Dovesi                    *
 * Ab-initio calculation of elastic constants of crystalline            *
 * systems with the CRYSTAL code                                        *
 * Comp. Phys. Comm. 180 (2009) 1753-1759                               *
 *                                                                      *
 * IT IS ASSUMED THAT THE INPUT IS FROM AN OPTIMIZED RUN                *

 CONVERGENCE CRITERION FOR ENERGY, TOLDEE =          1.0000E-08
 CONVERGENCE CRITERION FOR RMS GRADIENT, TOLDEG =    3.0000E-04
 CONVERGENCE CRITERION FOR RMS DISPLACEMENT, TOLDEX  6.2000E-04
 MAGNITUDE OF STEPSIZE FOR ADIMENSIONAL STRAINS =    1.0000E-02
 NUMBER OF POINTS (TOTAL) IN NUMERICAL 2ND DERIVATIVE=        3
 ************************************************************************
 ************************************************************************

 ************************************************************************

  Y. NOEL POST DOC. TURIN 2002

  THIS ROUTINE EVALUATES THE NON ZERO ELEMENTS OF THE ELASTIC TENSOR 

  ORDER OF THE TENSOR : 4

 |  1 A    1 C    1 D     .     1 B     .     |
 |         1 J    1 K     .     1 H     .     |
 |                1 M     .     1 I     .     |
 |                       1 L     .     1 F    |
 |                              1 G     .     |
 |                                     1 E    |

 EACH  LETTER   CORRESPONDS  TO  AN  INDEPENDENT  COMPONENT.
 INTERDEPENDENT COMPONENTS (WITH SAME LETTER) ARE RELATED BY
 THE COEFFICIENT THAT PRECEEDS EACH LETTER.

 ************************************************************************


 LIST OF ACTIVE DEFORMATIONS: 
             1
             2
             3
             4
             5
             6

 DFT PARAMETERS

     ATOM       ELECTRONS   NET CHARGE   R(ANGSTROM)
   1  14  SI     14.0000      0.0000     1.17000000
   9   8  O       8.0000      0.0000     0.74000000

 SIZE OF GRID=     172953
 TTTTTTTTTTTTTTTTTTTTTTTTTTTTTT MAKE_GRID2  TELAPSE        1.54 TCPU        1.40
 BECKE WEIGHT FUNCTION
 RADSAFE =     2.00
 TOLERANCES - DENSITY:10**- 6; POTENTIAL:10**- 9; GRID WGT:10**-14

 RADIAL INTEGRATION  - INTERVALS (POINTS,UPPER LIMIT):            1( 75,  4.0*R)

 ANGULAR INTEGRATION - INTERVALS (ACCURACY LEVEL [N. POINTS] UPPER LIMIT):
  1(  4[  86]   0.2)  2(  8[ 194]   0.5)  3( 12[ 350]   0.9)  4( 16[ 974]   3.5)
  5( 12[ 350]9999.0)
 TTTTTTTTTTTTTTTTTTTTTTTTTTTTTT INT_CALC    TELAPSE        1.58 TCPU        1.44
 EEEEEEEEEE INT_CALC TERMINATION  DATE 02 12 2022 TIME 20:12:47.0

 *******************************************************************************
 Coesite opt                                                                     
 CRYSTAL - SCF - TYPE OF CALCULATION :  RESTRICTED CLOSED SHELL
 *******************************************************************************

 CAPPA:IS1  6;IS2  6;IS3  6; K PTS MONK NET  68; SYMMOPS:K SPACE   4;G SPACE   4

 TTTTTTTTTTTTTTTTTTTTTTTTTTTTTT SDIK        TELAPSE        1.68 TCPU        1.54

 AAAAAAAAAAAAAAAAAAAAAAAAAAAAAAAAAAAAAAAAAAAAAAAAAAAAAAAAAAAAAAAAAAAAAAAAAAAAAAA
         ATOMIC WAVEFUNCTION(S)


 NUCLEAR CHARGE 14.0  SYMMETRY SPECIES            S    P
 N. ELECTRONS   14.0  NUMBER OF PRIMITIVE GTOS   10    7
                      NUMBER OF CONTRACTED GTOS   4    3
                      NUMBER OF CLOSED SHELLS     3    1
                      OPEN SHELL OCCUPATION       0    2

  ZNUC  SCFIT    TOTAL HF ENERGY   KINETIC ENERGY   VIRIAL THEOREM ACCURACY
  14.0    19    -2.887313471E+02  2.884197281E+02 -2.001080436E+00  3.9E-06

 NUCLEAR CHARGE  8.0  SYMMETRY SPECIES            S    P
 N. ELECTRONS    8.0  NUMBER OF PRIMITIVE GTOS    7    4
                      NUMBER OF CONTRACTED GTOS   3    2
                      NUMBER OF CLOSED SHELLS     2    0
                      OPEN SHELL OCCUPATION       0    4

  ZNUC  SCFIT    TOTAL HF ENERGY   KINETIC ENERGY   VIRIAL THEOREM ACCURACY
   8.0    19    -7.471200414E+01  7.474428071E+01 -1.999568173E+00  1.7E-06

 AAAAAAAAAAAAAAAAAAAAAAAAAAAAAAAAAAAAAAAAAAAAAAAAAAAAAAAAAAAAAAAAAAAAAAAAAAAAAAA

 TTTTTTTTTTTTTTTTTTTTTTTTTTTTTT MOQGAD      TELAPSE        1.69 TCPU        1.54
 TTTTTTTTTTTTTTTTTTTTTTTTTTTTTT SHELLXN     TELAPSE        4.48 TCPU        4.33
 TTTTTTTTTTTTTTTTTTTTTTTTTTTTTT MONMO3      TELAPSE        4.50 TCPU        4.35
 NUMERICALLY INTEGRATED DENSITY    239.9999002331
 TTTTTTTTTTTTTTTTTTTTTTTTTTTTTT NUMDFT      TELAPSE        4.79 TCPU        4.64
 CYC   0 ETOT(AU) -3.523245784953E+03 DETOT -3.52E+03 tst  0.00E+00 PX  1.00E+00
 TTTTTTTTTTTTTTTTTTTTTTTTTTTTTT DIIS        TELAPSE        4.81 TCPU        4.66
 TTTTTTTTTTTTTTTTTTTTTTTTTTTTTT FDIK        TELAPSE        6.04 TCPU        5.89
 INSULATING STATE
 TOP OF VALENCE BANDS -    BAND    120; K   13; EIG -4.0401084E-01 AU
 TOP OF VALENCE BANDS -    BAND    120; K    1; EIG -4.1127732E-01 AU
 BOTTOM OF VIRTUAL BANDS - BAND    121; K    1; EIG -9.3892770E-02 AU
 INDIRECT ENERGY BAND GAP:   8.4387 eV
 TTTTTTTTTTTTTTTTTTTTTTTTTTTTTT PDIG        TELAPSE        6.12 TCPU        5.97
 TTTTTTTTTTTTTTTTTTTTTTTTTTTTTT MOQGAD      TELAPSE        6.12 TCPU        5.97
 TTTTTTTTTTTTTTTTTTTTTTTTTTTTTT SHELLXN     TELAPSE        9.09 TCPU        8.94
 TTTTTTTTTTTTTTTTTTTTTTTTTTTTTT MONMO3      TELAPSE        9.32 TCPU        9.17
 NUMERICALLY INTEGRATED DENSITY    239.9999190439
 TTTTTTTTTTTTTTTTTTTTTTTTTTTTTT NUMDFT      TELAPSE        9.52 TCPU        9.37
 CYC   1 ETOT(AU) -3.516673859869E+03 DETOT  6.57E+00 tst  0.00E+00 PX  1.00E+00
 TTTTTTTTTTTTTTTTTTTTTTTTTTTTTT DIIS        TELAPSE        9.53 TCPU        9.38
 DIIS TEST: 0.28048E+01 AT SCF   CYCLE   1 - MIX   30 %
 TTTTTTTTTTTTTTTTTTTTTTTTTTTTTT FDIK        TELAPSE        9.98 TCPU        9.82
 INSULATING STATE
 TOP OF VALENCE BANDS -    BAND    120; K   13; EIG -2.3641230E-01 AU
 TOP OF VALENCE BANDS -    BAND    120; K    1; EIG -2.4695324E-01 AU
 BOTTOM OF VIRTUAL BANDS - BAND    121; K    1; EIG  3.4079529E-02 AU
 INDIRECT ENERGY BAND GAP:   7.3605 eV
 TTTTTTTTTTTTTTTTTTTTTTTTTTTTTT PDIG        TELAPSE       10.06 TCPU        9.90
 TTTTTTTTTTTTTTTTTTTTTTTTTTTTTT MOQGAD      TELAPSE       10.06 TCPU        9.91
 TTTTTTTTTTTTTTTTTTTTTTTTTTTTTT SHELLXN     TELAPSE       13.03 TCPU       12.88
 TTTTTTTTTTTTTTTTTTTTTTTTTTTTTT MONMO3      TELAPSE       13.06 TCPU       12.91
 NUMERICALLY INTEGRATED DENSITY    239.9998977578
 TTTTTTTTTTTTTTTTTTTTTTTTTTTTTT NUMDFT      TELAPSE       13.31 TCPU       13.16
 CYC   2 ETOT(AU) -3.517131547529E+03 DETOT -4.58E-01 tst  5.74E-03 PX  1.70E-01
 TTTTTTTTTTTTTTTTTTTTTTTTTTTTTT DIIS        TELAPSE       13.33 TCPU       13.18
 DIIS TEST: 0.10477E+01 AT SCF   CYCLE   2 - DIIS ACTIVE - HISTORY:     2 CYCLES
 TTTTTTTTTTTTTTTTTTTTTTTTTTTTTT FDIK        TELAPSE       13.76 TCPU       13.61
 INSULATING STATE
 TOP OF VALENCE BANDS -    BAND    120; K   13; EIG -2.9189315E-01 AU
 TOP OF VALENCE BANDS -    BAND    120; K    1; EIG -3.0047812E-01 AU
 BOTTOM OF VIRTUAL BANDS - BAND    121; K    1; EIG  2.5859195E-02 AU
 INDIRECT ENERGY BAND GAP:   8.6465 eV
 TTTTTTTTTTTTTTTTTTTTTTTTTTTTTT PDIG        TELAPSE       13.84 TCPU       13.69
 TTTTTTTTTTTTTTTTTTTTTTTTTTTTTT MOQGAD      TELAPSE       13.85 TCPU       13.69
 TTTTTTTTTTTTTTTTTTTTTTTTTTTTTT SHELLXN     TELAPSE       16.82 TCPU       16.66
 TTTTTTTTTTTTTTTTTTTTTTTTTTTTTT MONMO3      TELAPSE       16.84 TCPU       16.69
 NUMERICALLY INTEGRATED DENSITY    239.9999074602
 TTTTTTTTTTTTTTTTTTTTTTTTTTTTTT NUMDFT      TELAPSE       17.03 TCPU       16.88
 CYC   3 ETOT(AU) -3.517387609472E+03 DETOT -2.56E-01 tst  8.60E-04 PX  6.81E-02
 TTTTTTTTTTTTTTTTTTTTTTTTTTTTTT DIIS        TELAPSE       17.05 TCPU       16.89
 DIIS TEST: 0.30879E-02 AT SCF   CYCLE   3 - DIIS ACTIVE - HISTORY:     3 CYCLES
 TTTTTTTTTTTTTTTTTTTTTTTTTTTTTT FDIK        TELAPSE       17.48 TCPU       17.32
 INSULATING STATE
 TOP OF VALENCE BANDS -    BAND    120; K   13; EIG -2.9243654E-01 AU
 TOP OF VALENCE BANDS -    BAND    120; K    1; EIG -3.0164007E-01 AU
 BOTTOM OF VIRTUAL BANDS - BAND    121; K    1; EIG  2.8495397E-02 AU
 INDIRECT ENERGY BAND GAP:   8.7330 eV
 TTTTTTTTTTTTTTTTTTTTTTTTTTTTTT PDIG        TELAPSE       17.56 TCPU       17.40
 TTTTTTTTTTTTTTTTTTTTTTTTTTTTTT MOQGAD      TELAPSE       17.56 TCPU       17.41
 TTTTTTTTTTTTTTTTTTTTTTTTTTTTTT SHELLXN     TELAPSE       20.54 TCPU       20.38
 TTTTTTTTTTTTTTTTTTTTTTTTTTTTTT MONMO3      TELAPSE       20.56 TCPU       20.41
 NUMERICALLY INTEGRATED DENSITY    239.9999071334
 TTTTTTTTTTTTTTTTTTTTTTTTTTTTTT NUMDFT      TELAPSE       20.92 TCPU       20.76
 CYC   4 ETOT(AU) -3.517387911035E+03 DETOT -3.02E-04 tst  6.71E-06 PX  7.30E-03
 TTTTTTTTTTTTTTTTTTTTTTTTTTTTTT DIIS        TELAPSE       20.94 TCPU       20.78
 DIIS TEST: 0.21071E-02 AT SCF   CYCLE   4 - DIIS ACTIVE - HISTORY:     4 CYCLES
 TTTTTTTTTTTTTTTTTTTTTTTTTTTTTT FDIK        TELAPSE       21.33 TCPU       21.18
 INSULATING STATE
 TOP OF VALENCE BANDS -    BAND    120; K   13; EIG -2.9128435E-01 AU
 TOP OF VALENCE BANDS -    BAND    120; K    1; EIG -3.0016345E-01 AU
 BOTTOM OF VIRTUAL BANDS - BAND    121; K    1; EIG  2.9293472E-02 AU
 INDIRECT ENERGY BAND GAP:   8.7234 eV
 TTTTTTTTTTTTTTTTTTTTTTTTTTTTTT PDIG        TELAPSE       21.41 TCPU       21.26
 TTTTTTTTTTTTTTTTTTTTTTTTTTTTTT MOQGAD      TELAPSE       21.42 TCPU       21.26
 TTTTTTTTTTTTTTTTTTTTTTTTTTTTTT SHELLXN     TELAPSE       24.39 TCPU       24.23
 TTTTTTTTTTTTTTTTTTTTTTTTTTTTTT MONMO3      TELAPSE       24.41 TCPU       24.25
 NUMERICALLY INTEGRATED DENSITY    239.9999072893
 TTTTTTTTTTTTTTTTTTTTTTTTTTTTTT NUMDFT      TELAPSE       24.61 TCPU       24.45
 CYC   5 ETOT(AU) -3.517388409325E+03 DETOT -4.98E-04 tst  2.24E-06 PX  4.32E-03
 TTTTTTTTTTTTTTTTTTTTTTTTTTTTTT DIIS        TELAPSE       24.62 TCPU       24.46
 DIIS TEST: 0.84756E-04 AT SCF   CYCLE   5 - DIIS ACTIVE - HISTORY:     5 CYCLES
 TTTTTTTTTTTTTTTTTTTTTTTTTTTTTT FDIK        TELAPSE       25.04 TCPU       24.88
 INSULATING STATE
 TOP OF VALENCE BANDS -    BAND    120; K   13; EIG -2.9126542E-01 AU
 TOP OF VALENCE BANDS -    BAND    120; K    1; EIG -3.0020537E-01 AU
 BOTTOM OF VIRTUAL BANDS - BAND    121; K    1; EIG  2.9392840E-02 AU
 INDIRECT ENERGY BAND GAP:   8.7256 eV
 TTTTTTTTTTTTTTTTTTTTTTTTTTTTTT PDIG        TELAPSE       25.13 TCPU       24.97
 TTTTTTTTTTTTTTTTTTTTTTTTTTTTTT MOQGAD      TELAPSE       25.13 TCPU       24.97
 TTTTTTTTTTTTTTTTTTTTTTTTTTTTTT SHELLXN     TELAPSE       28.11 TCPU       27.94
 TTTTTTTTTTTTTTTTTTTTTTTTTTTTTT MONMO3      TELAPSE       28.13 TCPU       27.97
 NUMERICALLY INTEGRATED DENSITY    239.9999072446
 TTTTTTTTTTTTTTTTTTTTTTTTTTTTTT NUMDFT      TELAPSE       28.32 TCPU       28.16
 CYC   6 ETOT(AU) -3.517388429408E+03 DETOT -2.01E-05 tst  8.08E-08 PX  8.04E-04
 TTTTTTTTTTTTTTTTTTTTTTTTTTTTTT DIIS        TELAPSE       28.55 TCPU       28.38
 DIIS TEST: 0.65157E-05 AT SCF   CYCLE   6 - DIIS ACTIVE - HISTORY:     6 CYCLES
 TTTTTTTTTTTTTTTTTTTTTTTTTTTTTT FDIK        TELAPSE       28.99 TCPU       28.82
 INSULATING STATE
 TOP OF VALENCE BANDS -    BAND    120; K   13; EIG -2.9135222E-01 AU
 TOP OF VALENCE BANDS -    BAND    120; K    1; EIG -3.0028061E-01 AU
 BOTTOM OF VIRTUAL BANDS - BAND    121; K    1; EIG  2.9349149E-02 AU
 INDIRECT ENERGY BAND GAP:   8.7267 eV
 TTTTTTTTTTTTTTTTTTTTTTTTTTTTTT PDIG        TELAPSE       29.02 TCPU       28.86
 TTTTTTTTTTTTTTTTTTTTTTTTTTTTTT MOQGAD      TELAPSE       29.03 TCPU       28.86
 TTTTTTTTTTTTTTTTTTTTTTTTTTTTTT SHELLXN     TELAPSE       32.00 TCPU       31.83
 TTTTTTTTTTTTTTTTTTTTTTTTTTTTTT MONMO3      TELAPSE       32.02 TCPU       31.86
 NUMERICALLY INTEGRATED DENSITY    239.9999072635
 TTTTTTTTTTTTTTTTTTTTTTTTTTTTTT NUMDFT      TELAPSE       32.25 TCPU       32.09
 CYC   7 ETOT(AU) -3.517388430644E+03 DETOT -1.24E-06 tst  8.41E-09 PX  2.24E-04
 TTTTTTTTTTTTTTTTTTTTTTTTTTTTTT DIIS        TELAPSE       32.27 TCPU       32.10
 DIIS TEST: 0.14246E-05 AT SCF   CYCLE   7 - DIIS ACTIVE - HISTORY:     7 CYCLES
 TTTTTTTTTTTTTTTTTTTTTTTTTTTTTT FDIK        TELAPSE       32.66 TCPU       32.50
 INSULATING STATE
 TOP OF VALENCE BANDS -    BAND    120; K   13; EIG -2.9132940E-01 AU
 TOP OF VALENCE BANDS -    BAND    120; K    1; EIG -3.0025784E-01 AU
 BOTTOM OF VIRTUAL BANDS - BAND    121; K    1; EIG  2.9355923E-02 AU
 INDIRECT ENERGY BAND GAP:   8.7263 eV
 TTTTTTTTTTTTTTTTTTTTTTTTTTTTTT PDIG        TELAPSE       32.74 TCPU       32.58
 TTTTTTTTTTTTTTTTTTTTTTTTTTTTTT MOQGAD      TELAPSE       32.75 TCPU       32.58
 TTTTTTTTTTTTTTTTTTTTTTTTTTTTTT SHELLXN     TELAPSE       36.02 TCPU       35.86
 TTTTTTTTTTTTTTTTTTTTTTTTTTTTTT MONMO3      TELAPSE       36.05 TCPU       35.88
 NUMERICALLY INTEGRATED DENSITY    239.9999072624
 TTTTTTTTTTTTTTTTTTTTTTTTTTTTTT NUMDFT      TELAPSE       36.30 TCPU       36.13
 CYC   8 ETOT(AU) -3.517388431286E+03 DETOT -6.42E-07 tst  2.01E-09 PX  1.38E-04
 TTTTTTTTTTTTTTTTTTTTTTTTTTTTTT DIIS        TELAPSE       36.32 TCPU       36.15
 DIIS TEST: 0.23704E-06 AT SCF   CYCLE   8 - DIIS ACTIVE - HISTORY:     8 CYCLES
 TTTTTTTTTTTTTTTTTTTTTTTTTTTTTT FDIK        TELAPSE       36.72 TCPU       36.55
 INSULATING STATE
 TOP OF VALENCE BANDS -    BAND    120; K   13; EIG -2.9132751E-01 AU
 TOP OF VALENCE BANDS -    BAND    120; K    1; EIG -3.0025832E-01 AU
 BOTTOM OF VIRTUAL BANDS - BAND    121; K    1; EIG  2.9361119E-02 AU
 INDIRECT ENERGY BAND GAP:   8.7264 eV
 TTTTTTTTTTTTTTTTTTTTTTTTTTTTTT PDIG        TELAPSE       36.80 TCPU       36.63
 TTTTTTTTTTTTTTTTTTTTTTTTTTTTTT MOQGAD      TELAPSE       36.80 TCPU       36.64
 TTTTTTTTTTTTTTTTTTTTTTTTTTTTTT SHELLXN     TELAPSE       39.77 TCPU       39.60
 TTTTTTTTTTTTTTTTTTTTTTTTTTTTTT MONMO3      TELAPSE       39.80 TCPU       39.63
 NUMERICALLY INTEGRATED DENSITY    239.9999072605
 TTTTTTTTTTTTTTTTTTTTTTTTTTTTTT NUMDFT      TELAPSE       39.99 TCPU       39.82
 CYC   9 ETOT(AU) -3.517388431199E+03 DETOT  8.69E-08 tst  1.60E-10 PX  5.82E-05
 TTTTTTTTTTTTTTTTTTTTTTTTTTTTTT DIIS        TELAPSE       40.01 TCPU       39.84
 DIIS TEST: 0.35148E-08 AT SCF   CYCLE   9 - DIIS ACTIVE - HISTORY:     9 CYCLES
 TTTTTTTTTTTTTTTTTTTTTTTTTTTTTT FDIK        TELAPSE       40.42 TCPU       40.25
 INSULATING STATE
 TOP OF VALENCE BANDS -    BAND    120; K   13; EIG -2.9132792E-01 AU
 TOP OF VALENCE BANDS -    BAND    120; K    1; EIG -3.0025787E-01 AU
 BOTTOM OF VIRTUAL BANDS - BAND    121; K    1; EIG  2.9361421E-02 AU
 INDIRECT ENERGY BAND GAP:   8.7264 eV
 TTTTTTTTTTTTTTTTTTTTTTTTTTTTTT PDIG        TELAPSE       40.50 TCPU       40.33
 TTTTTTTTTTTTTTTTTTTTTTTTTTTTTT MOQGAD      TELAPSE       40.50 TCPU       40.33
 TTTTTTTTTTTTTTTTTTTTTTTTTTTTTT SHELLXN     TELAPSE       43.47 TCPU       43.30
 TTTTTTTTTTTTTTTTTTTTTTTTTTTTTT MONMO3      TELAPSE       43.50 TCPU       43.33
 NUMERICALLY INTEGRATED DENSITY    239.9999072604
 TTTTTTTTTTTTTTTTTTTTTTTTTTTTTT NUMDFT      TELAPSE       43.69 TCPU       43.52
 CYC  10 ETOT(AU) -3.517388431219E+03 DETOT -2.00E-08 tst  3.68E-12 PX  6.92E-06
 TTTTTTTTTTTTTTTTTTTTTTTTTTTTTT DIIS        TELAPSE       43.71 TCPU       43.54
 DIIS TEST: 0.59313E-09 AT SCF   CYCLE  10 - DIIS ACTIVE - HISTORY:    10 CYCLES
 TTTTTTTTTTTTTTTTTTTTTTTTTTTTTT FDIK        TELAPSE       44.10 TCPU       43.93
 INSULATING STATE
 TOP OF VALENCE BANDS -    BAND    120; K   13; EIG -2.9132754E-01 AU
 TOP OF VALENCE BANDS -    BAND    120; K    1; EIG -3.0025795E-01 AU
 BOTTOM OF VIRTUAL BANDS - BAND    121; K    1; EIG  2.9361269E-02 AU
 INDIRECT ENERGY BAND GAP:   8.7264 eV
 TTTTTTTTTTTTTTTTTTTTTTTTTTTTTT PDIG        TELAPSE       44.18 TCPU       44.01
 TTTTTTTTTTTTTTTTTTTTTTTTTTTTTT MOQGAD      TELAPSE       44.18 TCPU       44.01
 TTTTTTTTTTTTTTTTTTTTTTTTTTTTTT SHELLXN     TELAPSE       47.15 TCPU       46.98
 TTTTTTTTTTTTTTTTTTTTTTTTTTTTTT MONMO3      TELAPSE       47.18 TCPU       47.00
 NUMERICALLY INTEGRATED DENSITY    239.9999072605
 TTTTTTTTTTTTTTTTTTTTTTTTTTTTTT NUMDFT      TELAPSE       47.46 TCPU       47.29
 CYC  11 ETOT(AU) -3.517388431217E+03 DETOT  2.28E-09 tst  8.80E-13 PX  2.52E-06
 TTTTTTTTTTTTTTTTTTTTTTTTTTTTTT DIIS        TELAPSE       47.48 TCPU       47.30
 DIIS TEST: 0.12591E-09 AT SCF   CYCLE  11 - DIIS ACTIVE - HISTORY:    11 CYCLES
 TTTTTTTTTTTTTTTTTTTTTTTTTTTTTT FDIK        TELAPSE       47.84 TCPU       47.67
 INSULATING STATE
 TOP OF VALENCE BANDS -    BAND    120; K   13; EIG -2.9132780E-01 AU
 TOP OF VALENCE BANDS -    BAND    120; K    1; EIG -3.0025806E-01 AU
 BOTTOM OF VIRTUAL BANDS - BAND    121; K    1; EIG  2.9361259E-02 AU
 INDIRECT ENERGY BAND GAP:   8.7264 eV
 TTTTTTTTTTTTTTTTTTTTTTTTTTTTTT PDIG        TELAPSE       47.93 TCPU       47.75
 TTTTTTTTTTTTTTTTTTTTTTTTTTTTTT MOQGAD      TELAPSE       47.93 TCPU       47.76
 TTTTTTTTTTTTTTTTTTTTTTTTTTTTTT SHELLXN     TELAPSE       50.91 TCPU       50.73
 TTTTTTTTTTTTTTTTTTTTTTTTTTTTTT MONMO3      TELAPSE       50.93 TCPU       50.76
 NUMERICALLY INTEGRATED DENSITY    239.9999072605
 TTTTTTTTTTTTTTTTTTTTTTTTTTTTTT NUMDFT      TELAPSE       51.12 TCPU       50.95
 CYC  12 ETOT(AU) -3.517388431216E+03 DETOT  1.02E-09 tst  1.07E-13 PX  1.08E-06
 TTTTTTTTTTTTTTTTTTTTTTTTTTTTTT DIIS        TELAPSE       51.14 TCPU       50.97
 DIIS TEST: 0.12036E-10 AT SCF   CYCLE  12 - DIIS ACTIVE - HISTORY:    12 CYCLES
 TTTTTTTTTTTTTTTTTTTTTTTTTTTTTT FDIK        TELAPSE       51.46 TCPU       51.28
 INSULATING STATE
 TOP OF VALENCE BANDS -    BAND    120; K   13; EIG -2.9132771E-01 AU
 TOP OF VALENCE BANDS -    BAND    120; K    1; EIG -3.0025799E-01 AU
 BOTTOM OF VIRTUAL BANDS - BAND    121; K    1; EIG  2.9361289E-02 AU
 INDIRECT ENERGY BAND GAP:   8.7264 eV
 TTTTTTTTTTTTTTTTTTTTTTTTTTTTTT PDIG        TELAPSE       51.54 TCPU       51.36
 TTTTTTTTTTTTTTTTTTTTTTTTTTTTTT MOQGAD      TELAPSE       51.54 TCPU       51.36
 TTTTTTTTTTTTTTTTTTTTTTTTTTTTTT SHELLXN     TELAPSE       54.51 TCPU       54.33
 TTTTTTTTTTTTTTTTTTTTTTTTTTTTTT MONMO3      TELAPSE       54.54 TCPU       54.36
 NUMERICALLY INTEGRATED DENSITY    239.9999072605
 TTTTTTTTTTTTTTTTTTTTTTTTTTTTTT NUMDFT      TELAPSE       54.73 TCPU       54.55
 CYC  13 ETOT(AU) -3.517388431216E+03 DETOT  1.36E-12 tst  3.36E-15 PX  4.74E-07
 TTTTTTTTTTTTTTTTTTTTTTTTTTTTTT DIIS        TELAPSE       54.75 TCPU       54.57
 DIIS TEST: 0.65988E-11 AT SCF   CYCLE  13 - DIIS ACTIVE - HISTORY:    13 CYCLES
 TTTTTTTTTTTTTTTTTTTTTTTTTTTTTT FDIK        TELAPSE       55.03 TCPU       54.85
 INSULATING STATE
 TOP OF VALENCE BANDS -    BAND    120; K   13; EIG -2.9132772E-01 AU
 TOP OF VALENCE BANDS -    BAND    120; K    1; EIG -3.0025800E-01 AU
 BOTTOM OF VIRTUAL BANDS - BAND    121; K    1; EIG  2.9361285E-02 AU
 INDIRECT ENERGY BAND GAP:   8.7264 eV
 TTTTTTTTTTTTTTTTTTTTTTTTTTTTTT PDIG        TELAPSE       55.11 TCPU       54.93
 TTTTTTTTTTTTTTTTTTTTTTTTTTTTTT MOQGAD      TELAPSE       55.11 TCPU       54.93
 TTTTTTTTTTTTTTTTTTTTTTTTTTTTTT SHELLXN     TELAPSE       58.08 TCPU       57.90
 ::: PSEUDO TOTAL   ENERGY                        -3.2871846463073E+03
 ::: VIRIAL COEFFICIENT                            1.0310416238223E+00
 TTTTTTTTTTTTTTTTTTTTTTTTTTTTTT MONMO3      TELAPSE       58.11 TCPU       57.93
 NUMERICALLY INTEGRATED DENSITY    239.9999072605
 TTTTTTTTTTTTTTTTTTTTTTTTTTTTTT NUMDFT      TELAPSE       58.35 TCPU       58.16
 CYC  14 ETOT(AU) -3.517388431216E+03 DETOT  7.28E-12 tst  2.30E-15 PX  4.74E-07

 == SCF ENDED - CONVERGENCE ON ENERGY      E(AU) -3.5173884312158E+03 CYCLES  14


 ENERGY EXPRESSION=HARTREE+FOCK EXCH*0.25000+(PBE        EXCH)*0.75000+PBE        CORR


 TOTAL ENERGY(DFT)(AU)( 14) -3.5173884312158E+03 DE 7.3E-12 tester 2.3E-15
 TTTTTTTTTTTTTTTTTTTTTTTTTTTTTT EDFT        TELAPSE       58.35 TCPU       58.17

 *******************************************************************************
 *                             FORCE CALCULATION                               *
 *******************************************************************************

 TTTTTTTTTTTTTTTTTTTTTTTTTTTTTT NUMDFG      TELAPSE       60.09 TCPU       59.91
 INFORMATION **** EXCPOG **** EXCH. BIPO BUFFER LENGTH (WORDS) =     6505416
 INFORMATION **** GENPOG **** BIPO BUFFER LENGTH (WORDS) =     1551400
 TTTTTTTTTTTTTTTTTTTTTTTTTTTTTT SHELXG      TELAPSE       84.24 TCPU       84.05

 CARTESIAN FORCES IN HARTREE/BOHR (ANALYTICAL)
   ATOM                     X                   Y                   Z
   1  14             9.174456062633E-07  1.380198507661E-05 -1.541894176366E-05
   2  14            -9.174456295780E-07  1.380198510192E-05  1.541894176255E-05
   3  14            -9.174456155892E-07 -1.380198508771E-05  1.541894174945E-05
   4  14             9.174456030436E-07 -1.380198509793E-05 -1.541894179180E-05
   5  14            -1.129714068671E-05  8.134702308205E-06  2.281025394957E-05
   6  14             1.129714072834E-05  8.134702353946E-06 -2.281025399214E-05
   7  14             1.129714066939E-05 -8.134702326856E-06 -2.281025395590E-05
   8  14            -1.129714069559E-05 -8.134702336182E-06  2.281025399564E-05
   9   8            -6.731641901681E-06 -1.913501095796E-06  5.485860145704E-06
  10   8             6.731641930324E-06 -1.913501098016E-06 -5.485860145704E-06
  11   8             6.731641941649E-06  1.913501092687E-06 -5.485860142151E-06
  12   8            -6.731641921665E-06  1.913501087358E-06  5.485860142151E-06
  13   8             1.037360307254E-05  1.468953229899E-05 -1.630509901629E-05
  14   8            -1.037360308054E-05  1.468953228789E-05  1.630509902206E-05
  15   8            -1.037360307343E-05 -1.468953229500E-05  1.630509901940E-05
  16   8             1.037360307876E-05 -1.468953228567E-05 -1.630509903361E-05
  17   8            -1.918510956544E-06  1.994951341722E-05 -1.201642631621E-05
  18   8             1.918510930343E-06  1.994951338702E-05  1.201642640591E-05
  19   8             1.918510952326E-06 -1.994951340478E-05  1.201642634530E-05
  20   8            -1.918510937671E-06 -1.994951339679E-05 -1.201642638327E-05
  21   8            -1.221245327088E-15 -2.404820822388E-05 -2.026157019941E-14
  22   8            -5.884182030513E-15  2.404820820967E-05  9.485467966641E-15
  23   8            -7.023420541689E-15  1.804708618742E-14  6.911885470385E-15
  24   8             1.139238511176E-15  4.772845771894E-15  2.469499087698E-15

 RESULTANT FORCE     9.992007221626E-16 -4.269509841542E-15 -4.392319841173E-15

 ATOMIC PART

 SYMMETRY ALLOWED FORCES (ANALYTICAL) (DIRECTION, FORCE)

    1  2.4854983E-05    2  1.2148079E-05    3 -3.0837884E-05    4  2.8648847E-06
    5  2.7694539E-05    6  4.5620508E-05    7 -1.0020446E-05    8  9.7722369E-06
    9  1.0971720E-05   10  3.5807940E-05   11 -3.3715651E-06   12 -3.2610198E-05
   13  3.2695703E-05   14  2.3187197E-05   15 -2.4032853E-05   16 -3.4009302E-05

 CELL PART

 GRADIENT WITH RESPECT TO THE CELL PARAMETER IN HARTREE/BOHR
ORDER: -D/DA1X, -D/DA1Y, -D/DA1Z
       -D/DA2X, -D/DA2Y, -D/DA2Z
       -D/DA3X, -D/DA3Y, -D/DA3Z
 -0.116548016180E-04  0.482131541091E-05  0.187638886775E-04
  0.116548015932E-04  0.482131541979E-05 -0.187638886704E-04
 -0.168433095952E-04  0.133499162062E-13  0.182726376075E-04

STRESS TENSOR, IN HARTREE/BOHR^3:
ORDER: 11 12 13
       21 22 23
       31 32 33
  0.248115860099E-07  0.155235037058E-15  0.105077940763E-06
  0.783319046265E-16 -0.601903731347E-07 -0.832842082711E-16
 -0.707635211792E-07 -0.443528858920E-16 -0.113994884511E-06

PRESSURE FROM THE STRESS TENSOR,
IN HARTREE/BOHR^3:  0.49791E-07
PRESSURE IN GIGAPASCAL:  0.1465E-02
CONVERSION FACTOR: 1 HARTREE/BOHR^3= 29421 GIGAPASCAL
WHEN USING VALUES FOR BOHR RADIUS AND HARTREE
FROM IUPAC WEBSITE, APRIL 2009
ENTHALPY: -3.5173883369496E+03

 SYMMETRY ALLOWED FORCES (ANALYTICAL) (DIRECTION, FORCE)

    1  1.6327373E-04    2 -1.7298311E-04    3 -7.2028866E-05    4 -4.5937202E-05
 TTTTTTTTTTTTTTTTTTTTTTTTTTTTTT TOTGRA      TELAPSE       85.12 TCPU       84.93

 VOLUME OF THE CELL: 280.547416

 DENSITY OF THE CRYSTAL =          2.8395 g/cm^3

 STRAIN MATRIX   1 :

  |   1.0   0.0   0.0 |
  |   0.0   0.0   0.0 |
  |   0.0   0.0   0.0 |
  

   DISPL        ENERGY              DELTA E

 -0.0100   -3.5173880926E+03    3.3862072132E-04
  0.0000   -3.5173884312E+03    0.0000000000E+00
  0.0100   -3.5173878930E+03    5.3821535130E-04
  ELASTIC TENSOR CONSTANTS 
 c11 =             136.88774019 GPa
 c12 =              54.47453302 GPa
 c13 =              68.49843424 GPa
 c14 =               0.00000000 GPa
 c15 =              31.71516820 GPa
 c16 =              -0.00000000 GPa

 STRAIN MATRIX   2 :

  |   0.0   0.0   0.0 |
  |   0.0   1.0   0.0 |
  |   0.0   0.0   0.0 |
  

   DISPL        ENERGY              DELTA E

 -0.0100   -3.5173878142E+03    6.1697352294E-04
  0.0000   -3.5173884312E+03    0.0000000000E+00
  0.0100   -3.5173877161E+03    7.1514218689E-04
  ELASTIC TENSOR CONSTANTS 
 c21 =              55.00823070 GPa
 c22 =             205.00306152 GPa
 c23 =              39.16789424 GPa
 c24 =              -0.00000000 GPa
 c25 =             -12.06783939 GPa
 c26 =               0.00000000 GPa

 STRAIN MATRIX   3 :

  |   0.0   0.0   0.0 |
  |   0.0   0.0   0.0 |
  |   0.0   0.0   1.0 |
  

   DISPL        ENERGY              DELTA E

 -0.0100   -3.5173879252E+03    5.0598136886E-04
  0.0000   -3.5173884312E+03    0.0000000000E+00
  0.0100   -3.5173876643E+03    7.6689647904E-04
  ELASTIC TENSOR CONSTANTS 
 c31 =              69.17185252 GPa
 c32 =              39.20456386 GPa
 c33 =             197.02112836 GPa
 c34 =              -0.00000000 GPa
 c35 =              29.99428587 GPa
 c36 =               0.00000000 GPa

 STRAIN MATRIX   4 :

  |   0.0   0.0   0.0 |
  |   0.0   0.0   1.0 |
  |   0.0   1.0   0.0 |
  

   DISPL        ENERGY              DELTA E

 -0.0100   -3.5173878782E+03    5.5303647650E-04
  0.0000   -3.5173884313E+03    0.0000000000E+00
  0.0100   -3.5173878779E+03    5.5334607032E-04
  ELASTIC TENSOR CONSTANTS 
 c41 =              -0.00014863 GPa
 c42 =               0.00155492 GPa
 c43 =               0.00160660 GPa
 c44 =              43.40631082 GPa
 c45 =               0.00165096 GPa
 c46 =             -10.06226774 GPa

 STRAIN MATRIX   5 :

  |   0.0   0.0   1.0 |
  |   0.0   0.0   0.0 |
  |   1.0   0.0   0.0 |
  

   DISPL        ENERGY              DELTA E

 -0.0100   -3.5173875474E+03    8.8384198125E-04
  0.0000   -3.5173884312E+03    0.0000000000E+00
  0.0100   -3.5173876285E+03    8.0271096977E-04
  ELASTIC TENSOR CONSTANTS 
 c51 =              31.93022746 GPa
 c52 =             -11.72365128 GPa
 c53 =              29.82090713 GPa
 c54 =               0.00000000 GPa
 c55 =              65.36975218 GPa
 c56 =               0.00000000 GPa

 STRAIN MATRIX   6 :

  |   0.0   1.0   0.0 |
  |   1.0   0.0   0.0 |
  |   0.0   0.0   0.0 |
  

   DISPL        ENERGY              DELTA E

 -0.0100   -3.5173877004E+03    7.3082377503E-04
  0.0000   -3.5173884313E+03    0.0000000000E+00
  0.0100   -3.5173877002E+03    7.3104958847E-04
  ELASTIC TENSOR CONSTANTS 
 c61 =              -0.00367311 GPa
 c62 =              -0.00037572 GPa
 c63 =              -0.00092365 GPa
 c64 =             -10.00847739 GPa
 c65 =               0.00078230 GPa
 c66 =              57.04626555 GPa

 ************************************************************************
 ************************************************************************
                           FINAL RESULTS START
 ************************************************************************
 ************************************************************************

 THE CALCULATION HAS BEEN PERFORMED WITH   3 POINTS AND
 A STEP OF     0.01000
 THIS PERMITS TO PERFORM A FITTING UP TO SECOND   ORDER

 DATA FOR MAXIMUM NUMBER OF POINTS AND ORDER OF FIT

 SYMMETRIZED ELASTIC CONSTANTS FOR MONOCLINIC   CASE, IN GPa

 |   136.888   54.741   68.835    0.000   31.823    0.000 |
 |            205.003   39.186    0.000  -11.896    0.000 |
 |                     197.021    0.000   29.908    0.000 |
 |                               43.406    0.000  -10.035 |
 |                                        65.370    0.000 |
 |                                                 57.046 |


 ELASTIC MODULI (COMPLIANCE TENSOR), IN TPa^-1

 |   10.6765  -2.6317  -2.5201   0.0000  -4.5233   0.0000 |
 |             5.8577  -0.6468   0.0000   2.6430   0.0000 |
 |                      6.3579   0.0000  -1.7997   0.0000 |
 |                              24.0148   0.0000   4.2246 |
 |                                       18.8040   0.0000 |
 |                                                18.2728 |


 BULK MODULUS K, SHEAR MODULUS G, YOUNG MODULUS E AND
 POISSON RATIO v (ALL IN GPa) ACCORDING TO VOIGT-REUSS-HILL

    K_V     G_V     K_R     G_R     K_H     G_H    E_H      v_H

   96.05   58.24   88.54   50.33   92.29   54.29  136.16   0.254

 SEISMIC VELOCITIES BY CHRISTOFFEL EQUATION (km/s)

       WAVE VECTOR                Vp        Vs1       Vs2

 [ 0.000  0.000  1.000]          8.466     4.554     3.910
 [ 0.000  1.000  0.000]          8.497     4.686     3.663
 [ 1.000  0.000  0.000]          7.244     4.482     4.331
 [ 1.000  1.000  0.000]          7.794     4.974     3.737
 [ 1.000  0.000  1.000]          9.308     4.114     3.762
 [ 0.000  1.000  1.000]          7.590     5.591     4.332
 [ 1.000  1.000  1.000]          8.183     5.451     4.202

 ************************************************************************
 ************************************************************************
                           FINAL RESULTS END
 ************************************************************************
 ************************************************************************

       
 BULK MODULUS (GPa) 
       
 K =      88.54
       
 TTTTTTTTTTTTTTTTTTTTTTTTTTTTTT END         TELAPSE     8401.42 TCPU     8398.48
 EEEEEEEEEE TERMINATION  DATE 02 12 2022 TIME 22:32:46.8
NODE    0 CPU TIME =      8398.478
    TOTAL CPU TIME =    839936.788
Fri 02 Dec 2022 10:32:46 PM CET
total 229044
-rw-r--r-- 1 erba users        0 Dec  2 20:12 dffit3.dat
-rw-r--r-- 1 erba users        0 Dec  2 20:12 diis_err1.pe000
-rw-r--r-- 1 erba users        0 Dec  2 20:12 diis_err1.pe001
-rw-r--r-- 1 erba users        0 Dec  2 20:12 diis_err1.pe002
-rw-r--r-- 1 erba users        0 Dec  2 20:12 diis_err1.pe003
-rw-r--r-- 1 erba users        0 Dec  2 20:12 diis_err1.pe004
-rw-r--r-- 1 erba users        0 Dec  2 20:12 diis_err1.pe005
-rw-r--r-- 1 erba users        0 Dec  2 20:12 diis_err1.pe006
-rw-r--r-- 1 erba users        0 Dec  2 20:12 diis_err1.pe007
-rw-r--r-- 1 erba users        0 Dec  2 20:12 diis_err1.pe008
-rw-r--r-- 1 erba users        0 Dec  2 20:12 diis_err1.pe009
-rw-r--r-- 1 erba users        0 Dec  2 20:12 diis_err1.pe010
-rw-r--r-- 1 erba users        0 Dec  2 20:12 diis_err1.pe011
-rw-r--r-- 1 erba users        0 Dec  2 20:12 diis_err1.pe012
-rw-r--r-- 1 erba users        0 Dec  2 20:12 diis_err1.pe013
-rw-r--r-- 1 erba users        0 Dec  2 20:12 diis_err1.pe014
-rw-r--r-- 1 erba users        0 Dec  2 20:12 diis_err1.pe015
-rw-r--r-- 1 erba users        0 Dec  2 20:12 diis_err1.pe016
-rw-r--r-- 1 erba users        0 Dec  2 20:12 diis_err1.pe017
-rw-r--r-- 1 erba users        0 Dec  2 20:12 diis_err1.pe018
-rw-r--r-- 1 erba users        0 Dec  2 20:12 diis_err1.pe019
-rw-r--r-- 1 erba users        0 Dec  2 20:12 diis_err2.pe000
-rw-r--r-- 1 erba users        0 Dec  2 20:12 diis_err2.pe001
-rw-r--r-- 1 erba users        0 Dec  2 20:12 diis_err2.pe002
-rw-r--r-- 1 erba users        0 Dec  2 20:12 diis_err2.pe003
-rw-r--r-- 1 erba users        0 Dec  2 20:12 diis_err2.pe004
-rw-r--r-- 1 erba users        0 Dec  2 20:12 diis_err2.pe005
-rw-r--r-- 1 erba users        0 Dec  2 20:12 diis_err2.pe006
-rw-r--r-- 1 erba users        0 Dec  2 20:12 diis_err2.pe007
-rw-r--r-- 1 erba users        0 Dec  2 20:12 diis_err2.pe008
-rw-r--r-- 1 erba users        0 Dec  2 20:12 diis_err2.pe009
-rw-r--r-- 1 erba users        0 Dec  2 20:12 diis_err2.pe010
-rw-r--r-- 1 erba users        0 Dec  2 20:12 diis_err2.pe011
-rw-r--r-- 1 erba users        0 Dec  2 20:12 diis_err2.pe012
-rw-r--r-- 1 erba users        0 Dec  2 20:12 diis_err2.pe013
-rw-r--r-- 1 erba users        0 Dec  2 20:12 diis_err2.pe014
-rw-r--r-- 1 erba users        0 Dec  2 20:12 diis_err2.pe015
-rw-r--r-- 1 erba users        0 Dec  2 20:12 diis_err2.pe016
-rw-r--r-- 1 erba users        0 Dec  2 20:12 diis_err2.pe017
-rw-r--r-- 1 erba users        0 Dec  2 20:12 diis_err2.pe018
-rw-r--r-- 1 erba users        0 Dec  2 20:12 diis_err2.pe019
-rw-r--r-- 1 erba users  1123608 Dec  2 22:31 diis_Fg
-rw-r--r-- 1 erba users        0 Dec  2 20:12 diis_Sk.pe000
-rw-r--r-- 1 erba users        0 Dec  2 20:12 diis_Sk.pe001
-rw-r--r-- 1 erba users        0 Dec  2 20:12 diis_Sk.pe002
-rw-r--r-- 1 erba users        0 Dec  2 20:12 diis_Sk.pe003
-rw-r--r-- 1 erba users        0 Dec  2 20:12 diis_Sk.pe004
-rw-r--r-- 1 erba users        0 Dec  2 20:12 diis_Sk.pe005
-rw-r--r-- 1 erba users        0 Dec  2 20:12 diis_Sk.pe006
-rw-r--r-- 1 erba users        0 Dec  2 20:12 diis_Sk.pe007
-rw-r--r-- 1 erba users        0 Dec  2 20:12 diis_Sk.pe008
-rw-r--r-- 1 erba users        0 Dec  2 20:12 diis_Sk.pe009
-rw-r--r-- 1 erba users        0 Dec  2 20:12 diis_Sk.pe010
-rw-r--r-- 1 erba users        0 Dec  2 20:12 diis_Sk.pe011
-rw-r--r-- 1 erba users        0 Dec  2 20:12 diis_Sk.pe012
-rw-r--r-- 1 erba users        0 Dec  2 20:12 diis_Sk.pe013
-rw-r--r-- 1 erba users        0 Dec  2 20:12 diis_Sk.pe014
-rw-r--r-- 1 erba users        0 Dec  2 20:12 diis_Sk.pe015
-rw-r--r-- 1 erba users        0 Dec  2 20:12 diis_Sk.pe016
-rw-r--r-- 1 erba users        0 Dec  2 20:12 diis_Sk.pe017
-rw-r--r-- 1 erba users        0 Dec  2 20:12 diis_Sk.pe018
-rw-r--r-- 1 erba users        0 Dec  2 20:12 diis_Sk.pe019
-rw-r--r-- 1 erba users     6161 Dec  2 22:32 ELASINFO.DAT
-rw-r--r-- 1 erba users   266307 Dec  2 22:31 FORCES.DAT
-rw-r--r-- 1 erba users  2166792 Dec  2 22:31 fort.10.pe000
-rw-r--r-- 1 erba users  2166792 Dec  2 22:31 fort.10.pe001
-rw-r--r-- 1 erba users   270856 Dec  2 22:31 fort.10.pe002
-rw-r--r-- 1 erba users   270856 Dec  2 22:31 fort.10.pe003
-rw-r--r-- 1 erba users  2166792 Dec  2 22:31 fort.10.pe004
-rw-r--r-- 1 erba users  2166792 Dec  2 22:31 fort.10.pe005
-rw-r--r-- 1 erba users  2166792 Dec  2 22:31 fort.10.pe006
-rw-r--r-- 1 erba users  2166792 Dec  2 22:31 fort.10.pe007
-rw-r--r-- 1 erba users  2166792 Dec  2 22:31 fort.10.pe008
-rw-r--r-- 1 erba users  2166792 Dec  2 22:31 fort.10.pe009
-rw-r--r-- 1 erba users  2166792 Dec  2 22:31 fort.10.pe010
-rw-r--r-- 1 erba users  2166792 Dec  2 22:31 fort.10.pe011
-rw-r--r-- 1 erba users  2166792 Dec  2 22:31 fort.10.pe012
-rw-r--r-- 1 erba users  2166792 Dec  2 22:31 fort.10.pe013
-rw-r--r-- 1 erba users  2166792 Dec  2 22:31 fort.10.pe014
-rw-r--r-- 1 erba users  2166792 Dec  2 22:31 fort.10.pe015
-rw-r--r-- 1 erba users  2166792 Dec  2 22:31 fort.10.pe016
-rw-r--r-- 1 erba users  2166792 Dec  2 22:31 fort.10.pe017
-rw-r--r-- 1 erba users  2166792 Dec  2 22:31 fort.10.pe018
-rw-r--r-- 1 erba users  2166792 Dec  2 22:31 fort.10.pe019
-rw-r--r-- 1 erba users   374536 Dec  2 22:31 fort.11.pe000
-rw-r--r-- 1 erba users   374536 Dec  2 22:31 fort.11.pe001
-rw-r--r-- 1 erba users   374536 Dec  2 22:31 fort.11.pe002
-rw-r--r-- 1 erba users   374536 Dec  2 22:31 fort.11.pe003
-rw-r--r-- 1 erba users   374536 Dec  2 22:31 fort.11.pe004
-rw-r--r-- 1 erba users   374536 Dec  2 22:31 fort.11.pe005
-rw-r--r-- 1 erba users   374536 Dec  2 22:31 fort.11.pe006
-rw-r--r-- 1 erba users   374536 Dec  2 22:31 fort.11.pe007
-rw-r--r-- 1 erba users   374536 Dec  2 22:31 fort.11.pe008
-rw-r--r-- 1 erba users   374536 Dec  2 22:31 fort.11.pe009
-rw-r--r-- 1 erba users   374536 Dec  2 22:31 fort.11.pe010
-rw-r--r-- 1 erba users   374536 Dec  2 22:31 fort.11.pe011
-rw-r--r-- 1 erba users   374536 Dec  2 22:31 fort.11.pe012
-rw-r--r-- 1 erba users   374536 Dec  2 22:31 fort.11.pe013
-rw-r--r-- 1 erba users   374536 Dec  2 22:31 fort.11.pe014
-rw-r--r-- 1 erba users   374536 Dec  2 22:31 fort.11.pe015
-rw-r--r-- 1 erba users   374536 Dec  2 22:31 fort.11.pe016
-rw-r--r-- 1 erba users   374536 Dec  2 22:31 fort.11.pe017
-rw-r--r-- 1 erba users   374536 Dec  2 22:31 fort.11.pe018
-rw-r--r-- 1 erba users   374536 Dec  2 22:31 fort.11.pe019
-rw-r--r-- 1 erba users   223736 Dec  2 22:31 fort.12
-rw-r--r-- 1 erba users  4117288 Dec  2 22:31 fort.13
-rw-r--r-- 1 erba users        0 Dec  2 20:12 fort.17.pe001
-rw-r--r-- 1 erba users        0 Dec  2 20:12 fort.17.pe002
-rw-r--r-- 1 erba users        0 Dec  2 20:12 fort.17.pe003
-rw-r--r-- 1 erba users        0 Dec  2 20:12 fort.17.pe004
-rw-r--r-- 1 erba users        0 Dec  2 20:12 fort.17.pe005
-rw-r--r-- 1 erba users        0 Dec  2 20:12 fort.17.pe006
-rw-r--r-- 1 erba users        0 Dec  2 20:12 fort.17.pe007
-rw-r--r-- 1 erba users        0 Dec  2 20:12 fort.17.pe008
-rw-r--r-- 1 erba users        0 Dec  2 20:12 fort.17.pe009
-rw-r--r-- 1 erba users        0 Dec  2 20:12 fort.17.pe010
-rw-r--r-- 1 erba users        0 Dec  2 20:12 fort.17.pe011
-rw-r--r-- 1 erba users        0 Dec  2 20:12 fort.17.pe012
-rw-r--r-- 1 erba users        0 Dec  2 20:12 fort.17.pe013
-rw-r--r-- 1 erba users        0 Dec  2 20:12 fort.17.pe014
-rw-r--r-- 1 erba users        0 Dec  2 20:12 fort.17.pe015
-rw-r--r-- 1 erba users        0 Dec  2 20:12 fort.17.pe016
-rw-r--r-- 1 erba users        0 Dec  2 20:12 fort.17.pe017
-rw-r--r-- 1 erba users        0 Dec  2 20:12 fort.17.pe018
-rw-r--r-- 1 erba users        0 Dec  2 20:12 fort.17.pe019
-rw-r--r-- 1 erba users        0 Dec  2 20:12 fort.18.pe000
-rw-r--r-- 1 erba users        0 Dec  2 20:12 fort.18.pe001
-rw-r--r-- 1 erba users        0 Dec  2 20:12 fort.18.pe002
-rw-r--r-- 1 erba users        0 Dec  2 20:12 fort.18.pe003
-rw-r--r-- 1 erba users        0 Dec  2 20:12 fort.18.pe004
-rw-r--r-- 1 erba users        0 Dec  2 20:12 fort.18.pe005
-rw-r--r-- 1 erba users        0 Dec  2 20:12 fort.18.pe006
-rw-r--r-- 1 erba users        0 Dec  2 20:12 fort.18.pe007
-rw-r--r-- 1 erba users        0 Dec  2 20:12 fort.18.pe008
-rw-r--r-- 1 erba users        0 Dec  2 20:12 fort.18.pe009
-rw-r--r-- 1 erba users        0 Dec  2 20:12 fort.18.pe010
-rw-r--r-- 1 erba users        0 Dec  2 20:12 fort.18.pe011
-rw-r--r-- 1 erba users        0 Dec  2 20:12 fort.18.pe012
-rw-r--r-- 1 erba users        0 Dec  2 20:12 fort.18.pe013
-rw-r--r-- 1 erba users        0 Dec  2 20:12 fort.18.pe014
-rw-r--r-- 1 erba users        0 Dec  2 20:12 fort.18.pe015
-rw-r--r-- 1 erba users        0 Dec  2 20:12 fort.18.pe016
-rw-r--r-- 1 erba users        0 Dec  2 20:12 fort.18.pe017
-rw-r--r-- 1 erba users        0 Dec  2 20:12 fort.18.pe018
-rw-r--r-- 1 erba users        0 Dec  2 20:12 fort.18.pe019
-rw-r--r-- 1 erba users        0 Dec  2 20:12 fort.19.pe000
-rw-r--r-- 1 erba users        0 Dec  2 20:12 fort.19.pe001
-rw-r--r-- 1 erba users        0 Dec  2 20:12 fort.19.pe002
-rw-r--r-- 1 erba users        0 Dec  2 20:12 fort.19.pe003
-rw-r--r-- 1 erba users        0 Dec  2 20:12 fort.19.pe004
-rw-r--r-- 1 erba users        0 Dec  2 20:12 fort.19.pe005
-rw-r--r-- 1 erba users        0 Dec  2 20:12 fort.19.pe006
-rw-r--r-- 1 erba users        0 Dec  2 20:12 fort.19.pe007
-rw-r--r-- 1 erba users        0 Dec  2 20:12 fort.19.pe008
-rw-r--r-- 1 erba users        0 Dec  2 20:12 fort.19.pe009
-rw-r--r-- 1 erba users        0 Dec  2 20:12 fort.19.pe010
-rw-r--r-- 1 erba users        0 Dec  2 20:12 fort.19.pe011
-rw-r--r-- 1 erba users        0 Dec  2 20:12 fort.19.pe012
-rw-r--r-- 1 erba users        0 Dec  2 20:12 fort.19.pe013
-rw-r--r-- 1 erba users        0 Dec  2 20:12 fort.19.pe014
-rw-r--r-- 1 erba users        0 Dec  2 20:12 fort.19.pe015
-rw-r--r-- 1 erba users        0 Dec  2 20:12 fort.19.pe016
-rw-r--r-- 1 erba users        0 Dec  2 20:12 fort.19.pe017
-rw-r--r-- 1 erba users        0 Dec  2 20:12 fort.19.pe018
-rw-r--r-- 1 erba users        0 Dec  2 20:12 fort.19.pe019
-rw-r--r-- 1 erba users        0 Dec  2 20:12 fort.1.pe000
-rw-r--r-- 1 erba users        0 Dec  2 20:12 fort.1.pe001
-rw-r--r-- 1 erba users        0 Dec  2 20:12 fort.1.pe002
-rw-r--r-- 1 erba users        0 Dec  2 20:12 fort.1.pe003
-rw-r--r-- 1 erba users        0 Dec  2 20:12 fort.1.pe004
-rw-r--r-- 1 erba users        0 Dec  2 20:12 fort.1.pe005
-rw-r--r-- 1 erba users        0 Dec  2 20:12 fort.1.pe006
-rw-r--r-- 1 erba users        0 Dec  2 20:12 fort.1.pe007
-rw-r--r-- 1 erba users        0 Dec  2 20:12 fort.1.pe008
-rw-r--r-- 1 erba users        0 Dec  2 20:12 fort.1.pe009
-rw-r--r-- 1 erba users        0 Dec  2 20:12 fort.1.pe010
-rw-r--r-- 1 erba users        0 Dec  2 20:12 fort.1.pe011
-rw-r--r-- 1 erba users        0 Dec  2 20:12 fort.1.pe012
-rw-r--r-- 1 erba users        0 Dec  2 20:12 fort.1.pe013
-rw-r--r-- 1 erba users        0 Dec  2 20:12 fort.1.pe014
-rw-r--r-- 1 erba users        0 Dec  2 20:12 fort.1.pe015
-rw-r--r-- 1 erba users        0 Dec  2 20:12 fort.1.pe016
-rw-r--r-- 1 erba users        0 Dec  2 20:12 fort.1.pe017
-rw-r--r-- 1 erba users        0 Dec  2 20:12 fort.1.pe018
-rw-r--r-- 1 erba users        0 Dec  2 20:12 fort.1.pe019
-rw-r--r-- 1 erba users  2317164 Dec  2 22:31 fort.20
-rw-r--r-- 1 erba users   494608 Dec  2 22:32 fort.21
-rw-r--r-- 1 erba users        0 Dec  2 20:12 fort.28.pe000
-rw-r--r-- 1 erba users        0 Dec  2 20:12 fort.28.pe001
-rw-r--r-- 1 erba users        0 Dec  2 20:12 fort.28.pe002
-rw-r--r-- 1 erba users        0 Dec  2 20:12 fort.28.pe003
-rw-r--r-- 1 erba users        0 Dec  2 20:12 fort.28.pe004
-rw-r--r-- 1 erba users        0 Dec  2 20:12 fort.28.pe005
-rw-r--r-- 1 erba users        0 Dec  2 20:12 fort.28.pe006
-rw-r--r-- 1 erba users        0 Dec  2 20:12 fort.28.pe007
-rw-r--r-- 1 erba users        0 Dec  2 20:12 fort.28.pe008
-rw-r--r-- 1 erba users        0 Dec  2 20:12 fort.28.pe009
-rw-r--r-- 1 erba users        0 Dec  2 20:12 fort.28.pe010
-rw-r--r-- 1 erba users        0 Dec  2 20:12 fort.28.pe011
-rw-r--r-- 1 erba users        0 Dec  2 20:12 fort.28.pe012
-rw-r--r-- 1 erba users        0 Dec  2 20:12 fort.28.pe013
-rw-r--r-- 1 erba users        0 Dec  2 20:12 fort.28.pe014
-rw-r--r-- 1 erba users        0 Dec  2 20:12 fort.28.pe015
-rw-r--r-- 1 erba users        0 Dec  2 20:12 fort.28.pe016
-rw-r--r-- 1 erba users        0 Dec  2 20:12 fort.28.pe017
-rw-r--r-- 1 erba users        0 Dec  2 20:12 fort.28.pe018
-rw-r--r-- 1 erba users        0 Dec  2 20:12 fort.28.pe019
-rw-r--r-- 1 erba users        0 Dec  2 20:12 fort.29.pe000
-rw-r--r-- 1 erba users        0 Dec  2 20:12 fort.29.pe001
-rw-r--r-- 1 erba users        0 Dec  2 20:12 fort.29.pe002
-rw-r--r-- 1 erba users        0 Dec  2 20:12 fort.29.pe003
-rw-r--r-- 1 erba users        0 Dec  2 20:12 fort.29.pe004
-rw-r--r-- 1 erba users        0 Dec  2 20:12 fort.29.pe005
-rw-r--r-- 1 erba users        0 Dec  2 20:12 fort.29.pe006
-rw-r--r-- 1 erba users        0 Dec  2 20:12 fort.29.pe007
-rw-r--r-- 1 erba users        0 Dec  2 20:12 fort.29.pe008
-rw-r--r-- 1 erba users        0 Dec  2 20:12 fort.29.pe009
-rw-r--r-- 1 erba users        0 Dec  2 20:12 fort.29.pe010
-rw-r--r-- 1 erba users        0 Dec  2 20:12 fort.29.pe011
-rw-r--r-- 1 erba users        0 Dec  2 20:12 fort.29.pe012
-rw-r--r-- 1 erba users        0 Dec  2 20:12 fort.29.pe013
-rw-r--r-- 1 erba users        0 Dec  2 20:12 fort.29.pe014
-rw-r--r-- 1 erba users        0 Dec  2 20:12 fort.29.pe015
-rw-r--r-- 1 erba users        0 Dec  2 20:12 fort.29.pe016
-rw-r--r-- 1 erba users        0 Dec  2 20:12 fort.29.pe017
-rw-r--r-- 1 erba users        0 Dec  2 20:12 fort.29.pe018
-rw-r--r-- 1 erba users        0 Dec  2 20:12 fort.29.pe019
-rw-r--r-- 1 erba users   171893 Dec  2 22:31 fort.33
-rw-r--r-- 1 erba users     2330 Dec  2 22:31 fort.34
-rw-r--r-- 1 erba users        0 Dec  2 20:12 fort.38.pe000
-rw-r--r-- 1 erba users        0 Dec  2 20:12 fort.38.pe001
-rw-r--r-- 1 erba users        0 Dec  2 20:12 fort.38.pe002
-rw-r--r-- 1 erba users        0 Dec  2 20:12 fort.38.pe003
-rw-r--r-- 1 erba users        0 Dec  2 20:12 fort.38.pe004
-rw-r--r-- 1 erba users        0 Dec  2 20:12 fort.38.pe005
-rw-r--r-- 1 erba users        0 Dec  2 20:12 fort.38.pe006
-rw-r--r-- 1 erba users        0 Dec  2 20:12 fort.38.pe007
-rw-r--r-- 1 erba users        0 Dec  2 20:12 fort.38.pe008
-rw-r--r-- 1 erba users        0 Dec  2 20:12 fort.38.pe009
-rw-r--r-- 1 erba users        0 Dec  2 20:12 fort.38.pe010
-rw-r--r-- 1 erba users        0 Dec  2 20:12 fort.38.pe011
-rw-r--r-- 1 erba users        0 Dec  2 20:12 fort.38.pe012
-rw-r--r-- 1 erba users        0 Dec  2 20:12 fort.38.pe013
-rw-r--r-- 1 erba users        0 Dec  2 20:12 fort.38.pe014
-rw-r--r-- 1 erba users        0 Dec  2 20:12 fort.38.pe015
-rw-r--r-- 1 erba users        0 Dec  2 20:12 fort.38.pe016
-rw-r--r-- 1 erba users        0 Dec  2 20:12 fort.38.pe017
-rw-r--r-- 1 erba users        0 Dec  2 20:12 fort.38.pe018
-rw-r--r-- 1 erba users        0 Dec  2 20:12 fort.38.pe019
-rw-r--r-- 1 erba users        0 Dec  2 20:12 fort.3.pe000
-rw-r--r-- 1 erba users        0 Dec  2 20:12 fort.3.pe001
-rw-r--r-- 1 erba users        0 Dec  2 20:12 fort.3.pe002
-rw-r--r-- 1 erba users        0 Dec  2 20:12 fort.3.pe003
-rw-r--r-- 1 erba users        0 Dec  2 20:12 fort.3.pe004
-rw-r--r-- 1 erba users        0 Dec  2 20:12 fort.3.pe005
-rw-r--r-- 1 erba users        0 Dec  2 20:12 fort.3.pe006
-rw-r--r-- 1 erba users        0 Dec  2 20:12 fort.3.pe007
-rw-r--r-- 1 erba users        0 Dec  2 20:12 fort.3.pe008
-rw-r--r-- 1 erba users        0 Dec  2 20:12 fort.3.pe009
-rw-r--r-- 1 erba users        0 Dec  2 20:12 fort.3.pe010
-rw-r--r-- 1 erba users        0 Dec  2 20:12 fort.3.pe011
-rw-r--r-- 1 erba users        0 Dec  2 20:12 fort.3.pe012
-rw-r--r-- 1 erba users        0 Dec  2 20:12 fort.3.pe013
-rw-r--r-- 1 erba users        0 Dec  2 20:12 fort.3.pe014
-rw-r--r-- 1 erba users        0 Dec  2 20:12 fort.3.pe015
-rw-r--r-- 1 erba users        0 Dec  2 20:12 fort.3.pe016
-rw-r--r-- 1 erba users        0 Dec  2 20:12 fort.3.pe017
-rw-r--r-- 1 erba users        0 Dec  2 20:12 fort.3.pe018
-rw-r--r-- 1 erba users        0 Dec  2 20:12 fort.3.pe019
-rw-r--r-- 1 erba users        0 Dec  2 20:12 fort.40.pe000
-rw-r--r-- 1 erba users        0 Dec  2 20:12 fort.40.pe001
-rw-r--r-- 1 erba users        0 Dec  2 20:12 fort.40.pe002
-rw-r--r-- 1 erba users        0 Dec  2 20:12 fort.40.pe003
-rw-r--r-- 1 erba users        0 Dec  2 20:12 fort.40.pe004
-rw-r--r-- 1 erba users        0 Dec  2 20:12 fort.40.pe005
-rw-r--r-- 1 erba users        0 Dec  2 20:12 fort.40.pe006
-rw-r--r-- 1 erba users        0 Dec  2 20:12 fort.40.pe007
-rw-r--r-- 1 erba users        0 Dec  2 20:12 fort.40.pe008
-rw-r--r-- 1 erba users        0 Dec  2 20:12 fort.40.pe009
-rw-r--r-- 1 erba users        0 Dec  2 20:12 fort.40.pe010
-rw-r--r-- 1 erba users        0 Dec  2 20:12 fort.40.pe011
-rw-r--r-- 1 erba users        0 Dec  2 20:12 fort.40.pe012
-rw-r--r-- 1 erba users        0 Dec  2 20:12 fort.40.pe013
-rw-r--r-- 1 erba users        0 Dec  2 20:12 fort.40.pe014
-rw-r--r-- 1 erba users        0 Dec  2 20:12 fort.40.pe015
-rw-r--r-- 1 erba users        0 Dec  2 20:12 fort.40.pe016
-rw-r--r-- 1 erba users        0 Dec  2 20:12 fort.40.pe017
-rw-r--r-- 1 erba users        0 Dec  2 20:12 fort.40.pe018
-rw-r--r-- 1 erba users        0 Dec  2 20:12 fort.40.pe019
-rw-r--r-- 1 erba users    10704 Dec  2 21:59 fort.61.pe000
-rw-r--r-- 1 erba users    10704 Dec  2 21:59 fort.61.pe001
-rw-r--r-- 1 erba users    10704 Dec  2 21:59 fort.61.pe002
-rw-r--r-- 1 erba users    10704 Dec  2 21:59 fort.61.pe003
-rw-r--r-- 1 erba users    17744 Dec  2 21:59 fort.61.pe004
-rw-r--r-- 1 erba users    10704 Dec  2 21:59 fort.61.pe005
-rw-r--r-- 1 erba users    10704 Dec  2 21:59 fort.61.pe006
-rw-r--r-- 1 erba users    17744 Dec  2 21:59 fort.61.pe007
-rw-r--r-- 1 erba users    10704 Dec  2 21:59 fort.61.pe008
-rw-r--r-- 1 erba users    10704 Dec  2 21:59 fort.61.pe009
-rw-r--r-- 1 erba users    10704 Dec  2 21:59 fort.61.pe010
-rw-r--r-- 1 erba users    10704 Dec  2 21:59 fort.61.pe011
-rw-r--r-- 1 erba users    10704 Dec  2 21:59 fort.61.pe012
-rw-r--r-- 1 erba users    10704 Dec  2 21:59 fort.61.pe013
-rw-r--r-- 1 erba users    10704 Dec  2 21:59 fort.61.pe014
-rw-r--r-- 1 erba users    10704 Dec  2 21:59 fort.61.pe015
-rw-r--r-- 1 erba users    10704 Dec  2 21:59 fort.61.pe016
-rw-r--r-- 1 erba users    10704 Dec  2 21:59 fort.61.pe017
-rw-r--r-- 1 erba users    10704 Dec  2 21:59 fort.61.pe018
-rw-r--r-- 1 erba users    10704 Dec  2 21:59 fort.61.pe019
-rw-r--r-- 1 erba users        0 Dec  2 20:12 fort.62.pe000
-rw-r--r-- 1 erba users        0 Dec  2 20:12 fort.62.pe001
-rw-r--r-- 1 erba users     7008 Dec  2 21:59 fort.62.pe002
-rw-r--r-- 1 erba users     7008 Dec  2 21:59 fort.62.pe003
-rw-r--r-- 1 erba users        0 Dec  2 20:12 fort.62.pe004
-rw-r--r-- 1 erba users        0 Dec  2 20:12 fort.62.pe005
-rw-r--r-- 1 erba users    13952 Dec  2 21:42 fort.62.pe006
-rw-r--r-- 1 erba users     8096 Dec  2 21:42 fort.62.pe007
-rw-r--r-- 1 erba users     8096 Dec  2 21:42 fort.62.pe008
-rw-r--r-- 1 erba users        0 Dec  2 20:12 fort.62.pe009
-rw-r--r-- 1 erba users    15680 Dec  2 21:42 fort.62.pe010
-rw-r--r-- 1 erba users     8096 Dec  2 21:42 fort.62.pe011
-rw-r--r-- 1 erba users     8096 Dec  2 21:42 fort.62.pe012
-rw-r--r-- 1 erba users        0 Dec  2 20:12 fort.62.pe013
-rw-r--r-- 1 erba users        0 Dec  2 20:12 fort.62.pe014
-rw-r--r-- 1 erba users        0 Dec  2 20:12 fort.62.pe015
-rw-r--r-- 1 erba users    15680 Dec  2 21:42 fort.62.pe016
-rw-r--r-- 1 erba users     7040 Dec  2 21:42 fort.62.pe017
-rw-r--r-- 1 erba users     6976 Dec  2 21:42 fort.62.pe018
-rw-r--r-- 1 erba users        0 Dec  2 20:12 fort.62.pe019
-rw-r--r-- 1 erba users        0 Dec  2 20:12 fort.82.pe000
-rw-r--r-- 1 erba users        0 Dec  2 20:12 fort.82.pe001
-rw-r--r-- 1 erba users        0 Dec  2 20:12 fort.82.pe002
-rw-r--r-- 1 erba users        0 Dec  2 20:12 fort.82.pe003
-rw-r--r-- 1 erba users        0 Dec  2 20:12 fort.82.pe004
-rw-r--r-- 1 erba users        0 Dec  2 20:12 fort.82.pe005
-rw-r--r-- 1 erba users        0 Dec  2 20:12 fort.82.pe006
-rw-r--r-- 1 erba users        0 Dec  2 20:12 fort.82.pe007
-rw-r--r-- 1 erba users        0 Dec  2 20:12 fort.82.pe008
-rw-r--r-- 1 erba users        0 Dec  2 20:12 fort.82.pe009
-rw-r--r-- 1 erba users        0 Dec  2 20:12 fort.82.pe010
-rw-r--r-- 1 erba users        0 Dec  2 20:12 fort.82.pe011
-rw-r--r-- 1 erba users        0 Dec  2 20:12 fort.82.pe012
-rw-r--r-- 1 erba users        0 Dec  2 20:12 fort.82.pe013
-rw-r--r-- 1 erba users        0 Dec  2 20:12 fort.82.pe014
-rw-r--r-- 1 erba users        0 Dec  2 20:12 fort.82.pe015
-rw-r--r-- 1 erba users        0 Dec  2 20:12 fort.82.pe016
-rw-r--r-- 1 erba users        0 Dec  2 20:12 fort.82.pe017
-rw-r--r-- 1 erba users        0 Dec  2 20:12 fort.82.pe018
-rw-r--r-- 1 erba users        0 Dec  2 20:12 fort.82.pe019
-rw-r--r-- 1 erba users        0 Dec  2 20:12 fort.83.pe000
-rw-r--r-- 1 erba users        0 Dec  2 20:12 fort.83.pe001
-rw-r--r-- 1 erba users        0 Dec  2 20:12 fort.83.pe002
-rw-r--r-- 1 erba users        0 Dec  2 20:12 fort.83.pe003
-rw-r--r-- 1 erba users        0 Dec  2 20:12 fort.83.pe004
-rw-r--r-- 1 erba users        0 Dec  2 20:12 fort.83.pe005
-rw-r--r-- 1 erba users        0 Dec  2 20:12 fort.83.pe006
-rw-r--r-- 1 erba users        0 Dec  2 20:12 fort.83.pe007
-rw-r--r-- 1 erba users        0 Dec  2 20:12 fort.83.pe008
-rw-r--r-- 1 erba users        0 Dec  2 20:12 fort.83.pe009
-rw-r--r-- 1 erba users        0 Dec  2 20:12 fort.83.pe010
-rw-r--r-- 1 erba users        0 Dec  2 20:12 fort.83.pe011
-rw-r--r-- 1 erba users        0 Dec  2 20:12 fort.83.pe012
-rw-r--r-- 1 erba users        0 Dec  2 20:12 fort.83.pe013
-rw-r--r-- 1 erba users        0 Dec  2 20:12 fort.83.pe014
-rw-r--r-- 1 erba users        0 Dec  2 20:12 fort.83.pe015
-rw-r--r-- 1 erba users        0 Dec  2 20:12 fort.83.pe016
-rw-r--r-- 1 erba users        0 Dec  2 20:12 fort.83.pe017
-rw-r--r-- 1 erba users        0 Dec  2 20:12 fort.83.pe018
-rw-r--r-- 1 erba users        0 Dec  2 20:12 fort.83.pe019
-rw-r--r-- 1 erba users  2166792 Dec  2 22:31 fort.8.pe000
-rw-r--r-- 1 erba users  2166792 Dec  2 22:31 fort.8.pe001
-rw-r--r-- 1 erba users   270856 Dec  2 22:31 fort.8.pe002
-rw-r--r-- 1 erba users   270856 Dec  2 22:31 fort.8.pe003
-rw-r--r-- 1 erba users  2166792 Dec  2 22:31 fort.8.pe004
-rw-r--r-- 1 erba users  2166792 Dec  2 22:31 fort.8.pe005
-rw-r--r-- 1 erba users  2166792 Dec  2 22:31 fort.8.pe006
-rw-r--r-- 1 erba users  2166792 Dec  2 22:31 fort.8.pe007
-rw-r--r-- 1 erba users  2166792 Dec  2 22:31 fort.8.pe008
-rw-r--r-- 1 erba users  2166792 Dec  2 22:31 fort.8.pe009
-rw-r--r-- 1 erba users  2166792 Dec  2 22:31 fort.8.pe010
-rw-r--r-- 1 erba users  2166792 Dec  2 22:31 fort.8.pe011
-rw-r--r-- 1 erba users  2166792 Dec  2 22:31 fort.8.pe012
-rw-r--r-- 1 erba users  2166792 Dec  2 22:31 fort.8.pe013
-rw-r--r-- 1 erba users  2166792 Dec  2 22:31 fort.8.pe014
-rw-r--r-- 1 erba users  2166792 Dec  2 22:31 fort.8.pe015
-rw-r--r-- 1 erba users  2166792 Dec  2 22:31 fort.8.pe016
-rw-r--r-- 1 erba users  2166792 Dec  2 22:31 fort.8.pe017
-rw-r--r-- 1 erba users  2166792 Dec  2 22:31 fort.8.pe018
-rw-r--r-- 1 erba users  2166792 Dec  2 22:31 fort.8.pe019
-rw-r--r-- 1 erba users  1352404 Dec  2 20:14 fort.9
-rw-r--r-- 1 erba users  1084600 Dec  2 22:31 fort.95.pe000
-rw-r--r-- 1 erba users  1084600 Dec  2 22:31 fort.95.pe001
-rw-r--r-- 1 erba users  1084600 Dec  2 22:31 fort.95.pe002
-rw-r--r-- 1 erba users  1084600 Dec  2 22:31 fort.95.pe003
-rw-r--r-- 1 erba users  1084600 Dec  2 22:31 fort.95.pe004
-rw-r--r-- 1 erba users  1084600 Dec  2 22:31 fort.95.pe005
-rw-r--r-- 1 erba users  1084600 Dec  2 22:31 fort.95.pe006
-rw-r--r-- 1 erba users  1084600 Dec  2 22:31 fort.95.pe007
-rw-r--r-- 1 erba users  1084600 Dec  2 22:31 fort.95.pe008
-rw-r--r-- 1 erba users  1084600 Dec  2 22:31 fort.95.pe009
-rw-r--r-- 1 erba users  1084600 Dec  2 22:31 fort.95.pe010
-rw-r--r-- 1 erba users  1084600 Dec  2 22:31 fort.95.pe011
-rw-r--r-- 1 erba users  1084600 Dec  2 22:31 fort.95.pe012
-rw-r--r-- 1 erba users  1084600 Dec  2 22:31 fort.95.pe013
-rw-r--r-- 1 erba users  1084600 Dec  2 22:31 fort.95.pe014
-rw-r--r-- 1 erba users  1084600 Dec  2 22:31 fort.95.pe015
-rw-r--r-- 1 erba users  1084600 Dec  2 22:31 fort.95.pe016
-rw-r--r-- 1 erba users  1084600 Dec  2 22:31 fort.95.pe017
-rw-r--r-- 1 erba users  1084600 Dec  2 22:31 fort.95.pe018
-rw-r--r-- 1 erba users  1084600 Dec  2 22:31 fort.95.pe019
-rw-r--r-- 1 erba users  6041545 Dec  2 22:31 fort.98
-rw-r--r-- 1 erba users    23142 Dec  2 22:31 HESSOPT.DAT
-rwxr-xr-x 1 erba users     1823 Dec  2 20:12 INPUT
-rw-r--r-- 1 erba users     2330 Dec  2 22:19 opta001
-rw-r--r-- 1 erba users     2330 Dec  2 22:20 opta002
-rw-r--r-- 1 erba users     2330 Dec  2 22:22 opta003
-rw-r--r-- 1 erba users     2330 Dec  2 22:23 opta004
-rw-r--r-- 1 erba users     2330 Dec  2 22:25 opta005
-rw-r--r-- 1 erba users     2330 Dec  2 22:27 opta006
-rw-r--r-- 1 erba users     2330 Dec  2 22:29 opta007
-rw-r--r-- 1 erba users     2330 Dec  2 22:30 opta008
-rw-r--r-- 1 erba users     2330 Dec  2 22:31 opta009
-rw-r--r-- 1 erba users  9534702 Dec  2 22:31 OPTINFO.DAT
-rwxr-xr-x 1 erba users 99919752 Dec  2 20:12 Pcrystal-341645
lrwxrwxrwx 1 erba users       55 Dec  2 20:12 SCFOUT.LOG -> /home/erba/Mitoli/ela/coesite/elastcon/coesite_ela.out2
